# vtk DataFile Version 2.0
Unstructured Grid Example
ASCII
DATASET UNSTRUCTURED_GRID

POINTS 961 float
0.100000001 0.00499999989 0
0.0966666639 0.00499999989 0
0.0933333337 0.00499999989 0
0.0900000036 0.00499999989 0
0.086666666 0.00499999989 0
0.0833333358 0.00499999989 0
0.0799999982 0.00499999989 0
0.0766666681 0.00499999989 0
0.0733333305 0.00499999989 0
0.0700000003 0.00499999989 0
0.0666666701 0.00499999989 0
0.0633333325 0.00499999989 0
0.0599999987 0.00499999989 0
0.0566666685 0.00499999989 0
0.0533333346 0.00499999989 0
0.0500000007 0.00499999989 0
0.0466666669 0.00499999989 0
0.043333333 0.00499999989 0
0.0399999991 0.00499999989 0
0.0366666652 0.00499999989 0
0.0333333351 0.00499999989 0
0.0299999993 0.00499999989 0
0.0266666673 0.00499999989 0
0.0233333334 0.00499999989 0
0.0199999996 0.00499999989 0
0.0166666675 0.00499999989 0
0.0133333337 0.00499999989 0
0.00999999978 0.00499999989 0
0.00666666683 0.00499999989 0
0.00333333341 0.00499999989 0
0.0 0.00499999989 0
0.100000001 0.00166666671 0
0.0966666639 0.00166666671 0
0.0933333337 0.00166666671 0
0.0900000036 0.00166666671 0
0.086666666 0.00166666671 0
0.0833333358 0.00166666671 0
0.0799999982 0.00166666671 0
0.0766666681 0.00166666671 0
0.0733333305 0.00166666671 0
0.0700000003 0.00166666671 0
0.0666666701 0.00166666671 0
0.0633333325 0.00166666671 0
0.0599999987 0.00166666671 0
0.0566666685 0.00166666671 0
0.0533333346 0.00166666671 0
0.0500000007 0.00166666671 0
0.0466666669 0.00166666671 0
0.043333333 0.00166666671 0
0.0399999991 0.00166666671 0
0.0366666652 0.00166666671 0
0.0333333351 0.00166666671 0
0.0299999993 0.00166666671 0
0.0266666673 0.00166666671 0
0.0233333334 0.00166666671 0
0.0199999996 0.00166666671 0
0.0166666675 0.00166666671 0
0.0133333337 0.00166666671 0
0.00999999978 0.00166666671 0
0.00666666683 0.00166666671 0
0.00333333341 0.00166666671 0
0.0 0.00166666671 0
0.100000001 -0.00166666671 0
0.0966666639 -0.00166666671 0
0.0933333337 -0.00166666671 0
0.0900000036 -0.00166666671 0
0.086666666 -0.00166666671 0
0.0833333358 -0.00166666671 0
0.0799999982 -0.00166666671 0
0.0766666681 -0.00166666671 0
0.0733333305 -0.00166666671 0
0.0700000003 -0.00166666671 0
0.0666666701 -0.00166666671 0
0.0633333325 -0.00166666671 0
0.0599999987 -0.00166666671 0
0.0566666685 -0.00166666671 0
0.0533333346 -0.00166666671 0
0.0500000007 -0.00166666671 0
0.0466666669 -0.00166666671 0
0.043333333 -0.00166666671 0
0.0399999991 -0.00166666671 0
0.0366666652 -0.00166666671 0
0.0333333351 -0.00166666671 0
0.0299999993 -0.00166666671 0
0.0266666673 -0.00166666671 0
0.0233333334 -0.00166666671 0
0.0199999996 -0.00166666671 0
0.0166666675 -0.00166666671 0
0.0133333337 -0.00166666671 0
0.00999999978 -0.00166666671 0
0.00666666683 -0.00166666671 0
0.00333333341 -0.00166666671 0
0.0 -0.00166666671 0
0.100000001 -0.00499999989 0
0.0966666639 -0.00499999989 0
0.0933333337 -0.00499999989 0
0.0900000036 -0.00499999989 0
0.086666666 -0.00499999989 0
0.0833333358 -0.00499999989 0
0.0799999982 -0.00499999989 0
0.0766666681 -0.00499999989 0
0.0733333305 -0.00499999989 0
0.0700000003 -0.00499999989 0
0.0666666701 -0.00499999989 0
0.0633333325 -0.00499999989 0
0.0599999987 -0.00499999989 0
0.0566666685 -0.00499999989 0
0.0533333346 -0.00499999989 0
0.0500000007 -0.00499999989 0
0.0466666669 -0.00499999989 0
0.043333333 -0.00499999989 0
0.0399999991 -0.00499999989 0
0.0366666652 -0.00499999989 0
0.0333333351 -0.00499999989 0
0.0299999993 -0.00499999989 0
0.0266666673 -0.00499999989 0
0.0233333334 -0.00499999989 0
0.0199999996 -0.00499999989 0
0.0166666675 -0.00499999989 0
0.0133333337 -0.00499999989 0
0.00999999978 -0.00499999989 0
0.00666666683 -0.00499999989 0
0.00333333341 -0.00499999989 0
0.0 -0.00499999989 0
0.100000001 -0.00833333377 0
0.0966666639 -0.00833333377 0
0.0933333337 -0.00833333377 0
0.0900000036 -0.00833333377 0
0.086666666 -0.00833333377 0
0.0833333358 -0.00833333377 0
0.0799999982 -0.00833333377 0
0.0766666681 -0.00833333377 0
0.0733333305 -0.00833333377 0
0.0700000003 -0.00833333377 0
0.0666666701 -0.00833333377 0
0.0633333325 -0.00833333377 0
0.0599999987 -0.00833333377 0
0.0566666685 -0.00833333377 0
0.0533333346 -0.00833333377 0
0.0500000007 -0.00833333377 0
0.0466666669 -0.00833333377 0
0.043333333 -0.00833333377 0
0.0399999991 -0.00833333377 0
0.0366666652 -0.00833333377 0
0.0333333351 -0.00833333377 0
0.0299999993 -0.00833333377 0
0.0266666673 -0.00833333377 0
0.0233333334 -0.00833333377 0
0.0199999996 -0.00833333377 0
0.0166666675 -0.00833333377 0
0.0133333337 -0.00833333377 0
0.00999999978 -0.00833333377 0
0.00666666683 -0.00833333377 0
0.00333333341 -0.00833333377 0
0.0 -0.00833333377 0
0.100000001 -0.0116666667 0
0.0966666639 -0.0116666667 0
0.0933333337 -0.0116666667 0
0.0900000036 -0.0116666667 0
0.086666666 -0.0116666667 0
0.0833333358 -0.0116666667 0
0.0799999982 -0.0116666667 0
0.0766666681 -0.0116666667 0
0.0733333305 -0.0116666667 0
0.0700000003 -0.0116666667 0
0.0666666701 -0.0116666667 0
0.0633333325 -0.0116666667 0
0.0599999987 -0.0116666667 0
0.0566666685 -0.0116666667 0
0.0533333346 -0.0116666667 0
0.0500000007 -0.0116666667 0
0.0466666669 -0.0116666667 0
0.043333333 -0.0116666667 0
0.0399999991 -0.0116666667 0
0.0366666652 -0.0116666667 0
0.0333333351 -0.0116666667 0
0.0299999993 -0.0116666667 0
0.0266666673 -0.0116666667 0
0.0233333334 -0.0116666667 0
0.0199999996 -0.0116666667 0
0.0166666675 -0.0116666667 0
0.0133333337 -0.0116666667 0
0.00999999978 -0.0116666667 0
0.00666666683 -0.0116666667 0
0.00333333341 -0.0116666667 0
0.0 -0.0116666667 0
0.100000001 -0.0149999997 0
0.0966666639 -0.0149999997 0
0.0933333337 -0.0149999997 0
0.0900000036 -0.0149999997 0
0.086666666 -0.0149999997 0
0.0833333358 -0.0149999997 0
0.0799999982 -0.0149999997 0
0.0766666681 -0.0149999997 0
0.0733333305 -0.0149999997 0
0.0700000003 -0.0149999997 0
0.0666666701 -0.0149999997 0
0.0633333325 -0.0149999997 0
0.0599999987 -0.0149999997 0
0.0566666685 -0.0149999997 0
0.0533333346 -0.0149999997 0
0.0500000007 -0.0149999997 0
0.0466666669 -0.0149999997 0
0.043333333 -0.0149999997 0
0.0399999991 -0.0149999997 0
0.0366666652 -0.0149999997 0
0.0333333351 -0.0149999997 0
0.0299999993 -0.0149999997 0
0.0266666673 -0.0149999997 0
0.0233333334 -0.0149999997 0
0.0199999996 -0.0149999997 0
0.0166666675 -0.0149999997 0
0.0133333337 -0.0149999997 0
0.00999999978 -0.0149999997 0
0.00666666683 -0.0149999997 0
0.00333333341 -0.0149999997 0
0.0 -0.0149999997 0
0.100000001 -0.0183333326 0
0.0966666639 -0.0183333326 0
0.0933333337 -0.0183333326 0
0.0900000036 -0.0183333326 0
0.086666666 -0.0183333326 0
0.0833333358 -0.0183333326 0
0.0799999982 -0.0183333326 0
0.0766666681 -0.0183333326 0
0.0733333305 -0.0183333326 0
0.0700000003 -0.0183333326 0
0.0666666701 -0.0183333326 0
0.0633333325 -0.0183333326 0
0.0599999987 -0.0183333326 0
0.0566666685 -0.0183333326 0
0.0533333346 -0.0183333326 0
0.0500000007 -0.0183333326 0
0.0466666669 -0.0183333326 0
0.043333333 -0.0183333326 0
0.0399999991 -0.0183333326 0
0.0366666652 -0.0183333326 0
0.0333333351 -0.0183333326 0
0.0299999993 -0.0183333326 0
0.0266666673 -0.0183333326 0
0.0233333334 -0.0183333326 0
0.0199999996 -0.0183333326 0
0.0166666675 -0.0183333326 0
0.0133333337 -0.0183333326 0
0.00999999978 -0.0183333326 0
0.00666666683 -0.0183333326 0
0.00333333341 -0.0183333326 0
0.0 -0.0183333326 0
0.100000001 -0.0216666665 0
0.0966666639 -0.0216666665 0
0.0933333337 -0.0216666665 0
0.0900000036 -0.0216666665 0
0.086666666 -0.0216666665 0
0.0833333358 -0.0216666665 0
0.0799999982 -0.0216666665 0
0.0766666681 -0.0216666665 0
0.0733333305 -0.0216666665 0
0.0700000003 -0.0216666665 0
0.0666666701 -0.0216666665 0
0.0633333325 -0.0216666665 0
0.0599999987 -0.0216666665 0
0.0566666685 -0.0216666665 0
0.0533333346 -0.0216666665 0
0.0500000007 -0.0216666665 0
0.0466666669 -0.0216666665 0
0.043333333 -0.0216666665 0
0.0399999991 -0.0216666665 0
0.0366666652 -0.0216666665 0
0.0333333351 -0.0216666665 0
0.0299999993 -0.0216666665 0
0.0266666673 -0.0216666665 0
0.0233333334 -0.0216666665 0
0.0199999996 -0.0216666665 0
0.0166666675 -0.0216666665 0
0.0133333337 -0.0216666665 0
0.00999999978 -0.0216666665 0
0.00666666683 -0.0216666665 0
0.00333333341 -0.0216666665 0
0.0 -0.0216666665 0
0.100000001 -0.0250000004 0
0.0966666639 -0.0250000004 0
0.0933333337 -0.0250000004 0
0.0900000036 -0.0250000004 0
0.086666666 -0.0250000004 0
0.0833333358 -0.0250000004 0
0.0799999982 -0.0250000004 0
0.0766666681 -0.0250000004 0
0.0733333305 -0.0250000004 0
0.0700000003 -0.0250000004 0
0.0666666701 -0.0250000004 0
0.0633333325 -0.0250000004 0
0.0599999987 -0.0250000004 0
0.0566666685 -0.0250000004 0
0.0533333346 -0.0250000004 0
0.0500000007 -0.0250000004 0
0.0466666669 -0.0250000004 0
0.043333333 -0.0250000004 0
0.0399999991 -0.0250000004 0
0.0366666652 -0.0250000004 0
0.0333333351 -0.0250000004 0
0.0299999993 -0.0250000004 0
0.0266666673 -0.0250000004 0
0.0233333334 -0.0250000004 0
0.0199999996 -0.0250000004 0
0.0166666675 -0.0250000004 0
0.0133333337 -0.0250000004 0
0.00999999978 -0.0250000004 0
0.00666666683 -0.0250000004 0
0.00333333341 -0.0250000004 0
0.0 -0.0250000004 0
0.100000001 -0.0283333343 0
0.0966666639 -0.0283333343 0
0.0933333337 -0.0283333343 0
0.0900000036 -0.0283333343 0
0.086666666 -0.0283333343 0
0.0833333358 -0.0283333343 0
0.0799999982 -0.0283333343 0
0.0766666681 -0.0283333343 0
0.0733333305 -0.0283333343 0
0.0700000003 -0.0283333343 0
0.0666666701 -0.0283333343 0
0.0633333325 -0.0283333343 0
0.0599999987 -0.0283333343 0
0.0566666685 -0.0283333343 0
0.0533333346 -0.0283333343 0
0.0500000007 -0.0283333343 0
0.0466666669 -0.0283333343 0
0.043333333 -0.0283333343 0
0.0399999991 -0.0283333343 0
0.0366666652 -0.0283333343 0
0.0333333351 -0.0283333343 0
0.0299999993 -0.0283333343 0
0.0266666673 -0.0283333343 0
0.0233333334 -0.0283333343 0
0.0199999996 -0.0283333343 0
0.0166666675 -0.0283333343 0
0.0133333337 -0.0283333343 0
0.00999999978 -0.0283333343 0
0.00666666683 -0.0283333343 0
0.00333333341 -0.0283333343 0
0.0 -0.0283333343 0
[...]
POINT_DATA 961
SCALARS Temp float 1
LOOKUP_TABLE default
330.2707391733737
298.9407584932781
274.4262467939473
256.1908040816341
243.31544975830445
234.69331619875163
229.2173805025353
225.91735328789633
224.02831676064523
222.99974959265003
222.4661413042341
222.20192523458527
222.076938432662
222.0206967134951
221.99753902730612
221.99134036270058
221.99753902550566
222.02069670854215
222.07693851514819
222.20192542150176
222.46614084170662
222.99974990574873
224.0283181189041
225.91735295724922
229.21738463067172
234.69331151531173
243.31545390908917
256.190793118522
274.4262497685668
298.94078923024307
330.27073899330384
298.9407913439694
266.48199789296325
241.083776212275
222.19052427762648
208.85032111628854
199.91658257740303
194.2425182350696
190.82293805822133
188.8653711592382
187.79943491455916
187.24641028746075
186.97256506847597
186.84301596637422
186.7847181078411
186.76071264098204
186.7542868524777
186.7607126391156
186.7847181027068
186.84301605187338
186.97256526220886
187.2464098080889
187.79943523904177
188.8653725668028
190.82293771557693
194.2425225126544
199.9165777245871
208.85032541699934
222.19051291886493
241.08377929416093
266.48202973766075
298.94079115744
274.42625143803315
241.0837460618463
214.99276264197226
195.5829194766099
181.87685447007712
172.69722454833968
166.86634841303527
163.3518340224942
161.3396546392142
160.24382610064987
159.6752088182037
159.39359951654268
159.26035682460193
159.20038775194067
159.17569082021433
159.16907937901036
159.17569081829384
159.2003877466585
159.26035691254427
159.3935997157801
159.67520832527518
160.2438264342566
161.33965608613454
163.35183367028432
166.86635280907754
172.69721956163025
181.876858888925
195.5829078067775
214.9927658080208
241.08377877433662
274.4262512465046
256.19079333115354
222.19047748631806
195.58290299219667
175.78693353695633
161.80660893002522
152.4420182137199
146.49272506286164
142.90620993112722
140.85241707301753
139.73369851109197
139.15307967779842
138.86546291716274
138.7293471615613
138.6680714456558
138.6428314536929
138.63607379166336
138.64283145172985
138.66807144025762
138.72934725140817
138.86546312066812
139.1530791744053
139.73369885170294
140.85241854998955
142.90620957162471
146.49272954853106
152.44201312606066
161.80661343756765
175.7869216342609
195.5829062210781
222.19051084534408
256.1907931359607
243.31545425283136
208.85028963161216
181.87685414452335
161.8066256453456
147.63079693606727
138.13379661531732
132.09931982960487
128.46073274695766
126.37667004083873
125.2411990868993
124.65174075384427
124.35967044849816
124.22141082088721
124.15915389374467
124.13350382949315
124.12663536893236
124.13350382749827
124.15915388825898
124.22141091215931
124.35967065517546
124.65174024271646
125.24119943265283
126.37667153972792
128.4607323821467
132.09932437990292
138.13379145518232
147.6308015069549
161.80661357694052
181.876857417969
208.85032344802391
243.3154540550992
234.69331360730106
199.91654342270687
172.69721663201753
152.44202734301751
138.13378876417565
128.54665933294797
122.45386656220477
118.77940490061698
116.67434476271012
115.52716855627045
114.93148710685645
114.63625712798583
114.49646461573396
114.43350081263137
114.40755337854928
114.40060423894823
114.40755337653084
114.43350080708242
114.49646470802836
114.63625733692038
114.93148659026028
115.52716890563063
116.67434627685022
118.77940453212052
122.45387115687308
128.54665412331212
138.13379337806145
152.4420151626101
172.69721993546585
199.9165775461222
234.6933134079069
229.21738485847027
194.24248607036353
166.86634786481014
146.49274181113458
132.09931960523753
122.45387431106289
116.32310234665566
112.62510703103948
110.50616425047059
109.35118440521457
108.75131802175481
108.45394423731955
108.31310232602605
108.24965038402526
108.22349603851114
108.216490495639
108.22349603647633
108.24965037843228
108.31310241902302
108.45394444779116
108.75131750146338
109.35118475698957
110.50616577473019
112.62510666010432
116.323106970315
122.45386906927502
132.09932424685658
146.49272955884004
166.86635118742993
194.24252038927273
229.2173846580483
225.91735384797053
190.82290183406087
163.35182941405802
142.90622259797564
128.46072832041546
118.7794084359919
112.62510276092557
108.91240712916489
106.78471655944989
105.62477362216282
105.02221969946503
104.72345537878857
104.58192591675186
104.51815101834174
104.49185861028226
104.48481523200256
104.49185860823641
104.51815101271937
104.581926010211
104.7234555902611
105.02221917678743
105.6247739754811
106.78471809011194
108.91240675669182
112.62510740261419
118.77940317434033
128.46073297903573
142.9062103018506
163.35183274831
190.8229362711283
225.9173536469481
224.02831869990683
188.86533629191567
161.3396514897258
140.85243126486247
126.3766671260686
116.67434984272786
110.5061615176856
106.78471811318609
104.65177233333799
103.48881750875695
102.88461524269844
102.58498868699482
102.44302815358775
102.37904858713715
102.35266786316647
102.3456001412183
102.35266786111353
102.37904858149602
102.44302824733788
102.58498889909062
102.88461471854839
103.48881786301675
104.65177386786318
106.7847177397882
110.50616617005178
116.67434456939635
126.37667179460222
140.85241894332975
161.33965483068542
188.86537079683495
224.0283184985523
222.99974988924666
187.7993983053739
160.24382119559303
139.7337109305434
125.2411943535498
115.52717180888591
109.35117982282739
105.62477332409378
103.48881564997407
102.32411584990443
101.71894766257957
101.4188098568862
101.27659065846987
101.21248684834241
101.18605196913641
101.17896922602192
101.18605196707918
101.21248684268988
101.27659075239555
101.41881006935306
101.71894713756119
102.32411620471274
103.48881718672375
105.62477295016562
109.35118448122086
115.52716652901171
125.24119902758775
139.733698594991
160.2438245402336
187.79943284736262
222.99974968771812
222.46614114498982
187.2463731852427
159.67520342439542
139.1530916084536
124.65173551372452
114.93148985244686
108.75131292336974
105.0222188860444
102.88461286585108
101.71894714514686
101.1132378179017
100.81281000174397
100.67044220441109
100.60626613375335
100.57979941916938
100.57270778721403
100.57979941710947
100.60626612809415
100.67044229843829
100.81281021442257
101.11323729239344
101.7189475002606
102.88461440382429
105.02221851182581
108.7513175850098
114.93148456907669
124.65174019067679
139.15307926552654
159.6752067709613
187.2464077465301
222.46614094337454
222.2019255685658
186.97252846721847
159.39359464692197
138.86547538832832
124.35966575194693
114.63626042560111
108.45393969218226
104.72345512271669
102.58498686841118
101.41880989943286
100.81281056251093
100.5122252935981
100.36977574629671
100.30555940794923
100.2790747541776
100.27197807886685
100.27907475211634
100.30555940228629
100.3697758403799
100.51222550639223
100.81281003673833
101.4188102547093
102.58498840702782
104.7234547483461
108.45394435549292
114.63625514044664
124.35967043037252
138.86546304169767
159.3935979944491
186.9725630380961
222.20192536690942
222.0769386945642
186.84297928555645
159.26035187746115
138.72935955603785
124.22140604393205
114.49646783335218
108.31309769897022
104.58192557914333
102.44302625289866
101.27659061916653
100.67044268338417
100.3697756643129
100.22728309672235
100.16304528830736
100.13655096076215
100.1294515468386
100.13655095870001
100.16304528264223
100.22728319083522
100.36977587716724
100.670442157475
101.27659097452572
102.44302779183873
104.58192520469672
108.31310236310222
114.49646254732752
124.22141072306938
138.72934720762998
159.2603552254468
186.84301386098704
222.07693849288938
222.02069690144862
186.78468134817962
159.20038272563698
138.6680837603794
124.15914903460711
114.43350394772607
108.2496456731846
104.51815059688198
102.37904660217015
101.21248672478761
100.606266528447
100.3055592415615
100.16304520388647
100.09879654318313
100.07229727208956
100.06519644927432
100.07229727002692
100.09879653751692
100.16304529801428
100.30555945444578
100.60626600247089
101.21248708018676
102.37904814126443
104.51815022239927
108.24965033770043
114.43349866129829
124.15915371407137
138.66807141116078
159.20038607383066
186.78471592566606
222.02069669976544
221.99753922604012
186.76067589158993
159.17568580527438
138.6428437804984
124.13349898214769
114.40755652581667
108.22349133967163
104.49185820103612
102.35266589038211
101.18605185786919
100.57979982619332
100.2790746000956
100.13655088865583
100.07229728441246
100.04579574020013
100.0386942658617
100.04579573813737
100.07229727874575
100.13655098279033
100.27907481299324
100.57979930018756
101.18605221328589
102.35266742954335
104.49185782653781
108.22349600435085
114.40755123921856
124.1335036617491
138.64283143094187
159.17568915355446
186.7607104699256
221.99753902435393
221.99134057010036
186.75425011182605
159.16907437327808
138.63608612800655
124.12663053115003
114.40060739595764
108.21648580654761
104.48481483259825
102.34559817829013
101.17896912465406
100.57270820415773
100.27197793470245
100.12945148465504
100.06519647152386
100.0386942757888
100.03159261406797
100.03869427372592
100.06519646585708
100.1294515787914
100.27197814760395
100.57270767814376
101.17896948007564
102.3455997174698
104.48481445809563
108.21649047127143
114.40060210931317
124.12663521078856
138.63607377835882
159.16907772158135
186.75428469038965
221.99134036841357
221.9975392303775
186.7606758960861
159.17568580990024
138.64284378522598
124.1334989869521
114.40755653067681
108.2234913445706
104.4918582059609
102.35266589532343
101.18605186282072
100.5797998311508
100.2790746050563
100.13655089361843
100.07229728937595
100.04579574516404
100.03869427082567
100.04579574310127
100.0722972837094
100.13655098775297
100.27907481795394
100.57979930514506
101.18605221823732
102.35266743448462
104.49185783146257
108.22349600924973
114.40755124407872
124.1335036665535
138.64283143566945
159.17568915818035
186.76071047442198
221.9975390286915
222.02069691228354
186.78468135941097
159.2003827371909
138.6680837721858
124.15914904660343
114.4335039598595
108.2496456854129
104.51815060917328
102.37904661450145
101.21248673714328
100.60626654081686
100.30555925393931
100.16304521626834
100.09879655556722
100.07229728447457
100.06519646165972
100.0722972824121
100.09879654990112
100.16304531039631
100.30555946682354
100.60626601484068
101.21248709254237
102.37904815359565
104.5181502346905
108.24965034992877
114.43349867343171
124.15915372606776
138.6680714229672
159.20038608538457
186.78471593689764
222.0206967106007
222.0769387189773
186.84297931086127
159.2603519034885
138.72935958262835
124.22140607094354
114.49646786066539
108.31309772649077
104.5819256068
102.44302628064098
101.27659064696044
100.67044271120781
100.36977569215291
100.22728312457099
100.16304531616034
100.13655098861707
100.12945157469407
100.136550986555
100.16304531049528
100.22728321868395
100.36977590500733
100.67044218529864
101.27659100231945
102.44302781958092
104.58192523235327
108.31310239062272
114.4964625746409
124.22141075008095
138.72934723422046
159.26035525147432
186.84301388629171
222.07693851730238
222.2019256263514
186.97252852711114
159.39359470851585
138.86547545124088
124.359665815839
114.63626049019015
108.45393975724559
104.72345518808856
102.58498693397517
101.41880996511124
100.81281062825445
100.51222535937704
100.36977581209419
100.3055594737559
100.27907481998815
100.27197814467854
100.2790748179269
100.30555946809281
100.36977590617727
100.5122255721711
100.81281010248172
101.41881032038758
102.5849884725918
104.72345481371792
108.45394442055611
114.63625520503567
124.35967049426462
138.86546310461017
159.39359805604303
186.9725630979887
222.20192542469505
222.46614147861598
187.24637353101636
159.67520377994103
139.15309197153718
124.65173588237548
114.93149022503022
108.75131329860763
105.02221926299418
102.88461324385578
101.71894752377281
101.11323819687757
100.81281038090849
100.67044258367277
100.60626651306254
100.57979979849956
100.57270816655003
100.57979979643959
100.60626650740325
100.6704426776999
100.81281059358699
101.11323767136929
101.71894787888655
102.88461478182904
105.02221888877556
108.75131796024756
114.93148494165996
124.65174055932775
139.15307962861016
159.67520712650682
187.24640809230365
222.46614127700065
222.9997497034024
187.79939811276975
160.24382099756545
139.73371072834672
125.24119414828711
115.52717160146871
109.3511796139644
105.62477311430457
103.48881543961824
102.32411563921751
101.71894745170765
101.41880964591539
101.2765904474487
101.21248663729673
101.18605175807996
101.17896901496242
101.18605175602261
101.21248663164415
101.27659054137435
101.41880985838233
101.71894692668923
102.32411599402576
103.48881697636794
105.62477274037637
109.35118427235787
115.52716632159449
125.24119882232513
139.73369839279428
160.24382434220604
187.79943265475856
222.99974950187385
224.02831988264114
188.86533751758586
161.33965274967045
140.85243255098226
126.37666843128167
116.67435116122931
110.50616284500629
106.78471944608773
104.65177366960803
103.48881884696713
102.88461658197578
102.58499002683371
102.44302949370864
102.37904992739283
102.35266920348054
102.34560148154844
102.35266920142747
102.37904992175167
102.4430295874588
102.58499023892935
102.88461605782574
103.48881920122675
104.65177520413313
106.78471907268997
110.50616749737249
116.67434588789781
126.37667309981536
140.85242022944976
161.33965609063011
188.8653720225051
224.0283196812866
225.91735320079783
190.82290116341886
163.3518287247312
142.90622189442928
128.4607276065425
118.77940771496891
112.62510203518544
108.91240640046001
106.7847158289687
105.62477289066645
105.02221896741483
104.72345464644965
104.58192518426902
104.51815028579082
104.49185787770202
104.48481449941424
104.49185787565618
104.51815028016841
104.5819252777281
104.72345485792204
105.02221844473716
105.62477324398459
106.78471735963059
108.91240602798698
112.6251066768743
118.77940245331735
128.46073226516282
142.90620959830443
163.35183205898326
190.82293560048652
225.91735299977537
229.21738972805966
194.24249111624897
166.86635305044356
146.4927471025147
132.0993249728794
122.4538797310692
116.3231078008819
112.62511250655089
110.50616973859034
109.351189900453
108.75132352082846
108.4539497383671
108.31310782804452
108.24965588649732
108.2235015411764
108.21649599835699
108.22350153914158
108.24965588090443
108.31310792104145
108.45394994883864
108.75132300053681
109.35119025222785
110.50617126284995
112.62511213561594
116.32311242454135
122.45387448928143
132.09932961449852
146.4927348502205
166.86635637306355
194.24252543515814
229.2173895276379
234.6933155108408
199.91654539506186
172.6972186587189
152.44202941064174
138.13379086113446
128.5466614499062
122.4538686921268
118.77940703853062
116.67434690531205
115.52717070149234
114.931489253475
114.63625927531534
114.49646676340939
114.43350296046681
114.40755552645221
114.40060638686953
114.40755552443376
114.43350295491784
114.49646685570383
114.63625948424995
114.93148873687872
115.52717105085236
116.67434841945199
118.77940667003429
122.4538732867952
128.54665624027035
138.1337954750205
152.4420172302345
172.69722196216748
199.91657951847742
234.69331531144667
243.31544848441476
208.8502836548139
181.87684800347193
161.80661938092342
147.63079058348694
138.13379020285862
132.09931337849855
128.4607262721412
126.37666355218573
125.24119259055725
124.65173425342785
124.35966394601999
124.22140431741222
124.15914738981141
124.1334973253678
124.12662886475498
124.13349732337284
124.1591473843259
124.2214044086843
124.35966415269735
124.65173374229988
125.24119293631057
126.37666505107484
128.46072590733004
132.09931792879664
138.13378504272356
147.63079515437474
161.80660731251842
181.87685127691782
208.850317471226
243.3154482866827
256.19080203106574
222.19048650019172
195.58291225289148
175.78694298239563
161.8066185069128
152.44202787943752
146.49273478558285
142.90621968859745
140.85242685062698
139.73370829981172
139.15308947236133
138.86547271465943
138.7293569604654
138.66808124520193
138.64284125350648
138.63608359154912
138.6428412515437
138.6680812398037
138.72935705031236
138.86547291816458
139.153088968968
139.73370864042252
140.85242832759883
142.90621932909494
146.4927392712521
152.4420227917783
161.80662301445523
175.78693107970048
195.58291548177306
222.19051985921757
256.190801835873
274.4262437944209
241.0837381425993
214.99275450645726
195.5829111796357
181.87684605858882
172.69721605975678
166.86633987519207
163.35182545476528
161.33964605425388
160.24381750623502
159.67520021884488
159.39359091471567
159.26034822159778
159.20037914840245
159.17568221645465
159.16907077519136
159.1756822145343
159.20037914312022
159.26034830954003
159.3935911139529
159.67519972591612
160.24381783984143
161.33964750117377
163.35182510255524
166.86634427123423
172.6972110730473
181.87685047743682
195.58289950980353
214.99275767250586
241.08377085508997
274.4262436028922
298.9408170503444
266.48202452576726
241.08380357082373
222.1905521768661
208.85034939802378
199.9166111158644
194.2425469370021
190.8229668589524
188.8654000167013
187.79946380301456
187.24643919205
186.97259398108258
186.84304488278664
186.78474702597208
186.76074155982272
186.75431577150857
186.7607415579563
186.78474702083778
186.84304496828554
186.97259417481524
187.24643871267799
187.79946412749686
188.8654014242656
190.82296651630773
194.24255121458643
199.9166062630484
208.8503536987342
222.19054081810472
241.0838066527093
266.48205637046374
298.9408168638153
330.2707390753872
298.94075839177816
274.4262466897318
256.19080397543166
243.315449650728
234.69331609027827
229.21738039350905
225.91735317854824
224.02831665111978
222.99974948303208
222.46614119457047
222.20192512489982
222.07693832296704
222.0206966037959
221.9975389176052
221.99134025299915
221.9975389158046
222.02069659884262
222.07693840545292
222.20192531181627
222.46614073204262
222.99974979613066
224.02831800937838
225.91735284790073
229.21738452164533
234.69331140683823
243.31545380151275
256.19079301231955
274.4262496643512
298.940789128743
330.2707388953174
