# vtk DataFile Version 2.0
Unstructured Grid Example
ASCII
DATASET UNSTRUCTURED_GRID

POINTS 961 float
0.100000001 0.00499999989 0
0.0966666639 0.00499999989 0
0.0933333337 0.00499999989 0
0.0900000036 0.00499999989 0
0.086666666 0.00499999989 0
0.0833333358 0.00499999989 0
0.0799999982 0.00499999989 0
0.0766666681 0.00499999989 0
0.0733333305 0.00499999989 0
0.0700000003 0.00499999989 0
0.0666666701 0.00499999989 0
0.0633333325 0.00499999989 0
0.0599999987 0.00499999989 0
0.0566666685 0.00499999989 0
0.0533333346 0.00499999989 0
0.0500000007 0.00499999989 0
0.0466666669 0.00499999989 0
0.043333333 0.00499999989 0
0.0399999991 0.00499999989 0
0.0366666652 0.00499999989 0
0.0333333351 0.00499999989 0
0.0299999993 0.00499999989 0
0.0266666673 0.00499999989 0
0.0233333334 0.00499999989 0
0.0199999996 0.00499999989 0
0.0166666675 0.00499999989 0
0.0133333337 0.00499999989 0
0.00999999978 0.00499999989 0
0.00666666683 0.00499999989 0
0.00333333341 0.00499999989 0
0.0 0.00499999989 0
0.100000001 0.00166666671 0
0.0966666639 0.00166666671 0
0.0933333337 0.00166666671 0
0.0900000036 0.00166666671 0
0.086666666 0.00166666671 0
0.0833333358 0.00166666671 0
0.0799999982 0.00166666671 0
0.0766666681 0.00166666671 0
0.0733333305 0.00166666671 0
0.0700000003 0.00166666671 0
0.0666666701 0.00166666671 0
0.0633333325 0.00166666671 0
0.0599999987 0.00166666671 0
0.0566666685 0.00166666671 0
0.0533333346 0.00166666671 0
0.0500000007 0.00166666671 0
0.0466666669 0.00166666671 0
0.043333333 0.00166666671 0
0.0399999991 0.00166666671 0
0.0366666652 0.00166666671 0
0.0333333351 0.00166666671 0
0.0299999993 0.00166666671 0
0.0266666673 0.00166666671 0
0.0233333334 0.00166666671 0
0.0199999996 0.00166666671 0
0.0166666675 0.00166666671 0
0.0133333337 0.00166666671 0
0.00999999978 0.00166666671 0
0.00666666683 0.00166666671 0
0.00333333341 0.00166666671 0
0.0 0.00166666671 0
0.100000001 -0.00166666671 0
0.0966666639 -0.00166666671 0
0.0933333337 -0.00166666671 0
0.0900000036 -0.00166666671 0
0.086666666 -0.00166666671 0
0.0833333358 -0.00166666671 0
0.0799999982 -0.00166666671 0
0.0766666681 -0.00166666671 0
0.0733333305 -0.00166666671 0
0.0700000003 -0.00166666671 0
0.0666666701 -0.00166666671 0
0.0633333325 -0.00166666671 0
0.0599999987 -0.00166666671 0
0.0566666685 -0.00166666671 0
0.0533333346 -0.00166666671 0
0.0500000007 -0.00166666671 0
0.0466666669 -0.00166666671 0
0.043333333 -0.00166666671 0
0.0399999991 -0.00166666671 0
0.0366666652 -0.00166666671 0
0.0333333351 -0.00166666671 0
0.0299999993 -0.00166666671 0
0.0266666673 -0.00166666671 0
0.0233333334 -0.00166666671 0
0.0199999996 -0.00166666671 0
0.0166666675 -0.00166666671 0
0.0133333337 -0.00166666671 0
0.00999999978 -0.00166666671 0
0.00666666683 -0.00166666671 0
0.00333333341 -0.00166666671 0
0.0 -0.00166666671 0
0.100000001 -0.00499999989 0
0.0966666639 -0.00499999989 0
0.0933333337 -0.00499999989 0
0.0900000036 -0.00499999989 0
0.086666666 -0.00499999989 0
0.0833333358 -0.00499999989 0
0.0799999982 -0.00499999989 0
0.0766666681 -0.00499999989 0
0.0733333305 -0.00499999989 0
0.0700000003 -0.00499999989 0
0.0666666701 -0.00499999989 0
0.0633333325 -0.00499999989 0
0.0599999987 -0.00499999989 0
0.0566666685 -0.00499999989 0
0.0533333346 -0.00499999989 0
0.0500000007 -0.00499999989 0
0.0466666669 -0.00499999989 0
0.043333333 -0.00499999989 0
0.0399999991 -0.00499999989 0
0.0366666652 -0.00499999989 0
0.0333333351 -0.00499999989 0
0.0299999993 -0.00499999989 0
0.0266666673 -0.00499999989 0
0.0233333334 -0.00499999989 0
0.0199999996 -0.00499999989 0
0.0166666675 -0.00499999989 0
0.0133333337 -0.00499999989 0
0.00999999978 -0.00499999989 0
0.00666666683 -0.00499999989 0
0.00333333341 -0.00499999989 0
0.0 -0.00499999989 0
0.100000001 -0.00833333377 0
0.0966666639 -0.00833333377 0
0.0933333337 -0.00833333377 0
0.0900000036 -0.00833333377 0
0.086666666 -0.00833333377 0
0.0833333358 -0.00833333377 0
0.0799999982 -0.00833333377 0
0.0766666681 -0.00833333377 0
0.0733333305 -0.00833333377 0
0.0700000003 -0.00833333377 0
0.0666666701 -0.00833333377 0
0.0633333325 -0.00833333377 0
0.0599999987 -0.00833333377 0
0.0566666685 -0.00833333377 0
0.0533333346 -0.00833333377 0
0.0500000007 -0.00833333377 0
0.0466666669 -0.00833333377 0
0.043333333 -0.00833333377 0
0.0399999991 -0.00833333377 0
0.0366666652 -0.00833333377 0
0.0333333351 -0.00833333377 0
0.0299999993 -0.00833333377 0
0.0266666673 -0.00833333377 0
0.0233333334 -0.00833333377 0
0.0199999996 -0.00833333377 0
0.0166666675 -0.00833333377 0
0.0133333337 -0.00833333377 0
0.00999999978 -0.00833333377 0
0.00666666683 -0.00833333377 0
0.00333333341 -0.00833333377 0
0.0 -0.00833333377 0
0.100000001 -0.0116666667 0
0.0966666639 -0.0116666667 0
0.0933333337 -0.0116666667 0
0.0900000036 -0.0116666667 0
0.086666666 -0.0116666667 0
0.0833333358 -0.0116666667 0
0.0799999982 -0.0116666667 0
0.0766666681 -0.0116666667 0
0.0733333305 -0.0116666667 0
0.0700000003 -0.0116666667 0
0.0666666701 -0.0116666667 0
0.0633333325 -0.0116666667 0
0.0599999987 -0.0116666667 0
0.0566666685 -0.0116666667 0
0.0533333346 -0.0116666667 0
0.0500000007 -0.0116666667 0
0.0466666669 -0.0116666667 0
0.043333333 -0.0116666667 0
0.0399999991 -0.0116666667 0
0.0366666652 -0.0116666667 0
0.0333333351 -0.0116666667 0
0.0299999993 -0.0116666667 0
0.0266666673 -0.0116666667 0
0.0233333334 -0.0116666667 0
0.0199999996 -0.0116666667 0
0.0166666675 -0.0116666667 0
0.0133333337 -0.0116666667 0
0.00999999978 -0.0116666667 0
0.00666666683 -0.0116666667 0
0.00333333341 -0.0116666667 0
0.0 -0.0116666667 0
0.100000001 -0.0149999997 0
0.0966666639 -0.0149999997 0
0.0933333337 -0.0149999997 0
0.0900000036 -0.0149999997 0
0.086666666 -0.0149999997 0
0.0833333358 -0.0149999997 0
0.0799999982 -0.0149999997 0
0.0766666681 -0.0149999997 0
0.0733333305 -0.0149999997 0
0.0700000003 -0.0149999997 0
0.0666666701 -0.0149999997 0
0.0633333325 -0.0149999997 0
0.0599999987 -0.0149999997 0
0.0566666685 -0.0149999997 0
0.0533333346 -0.0149999997 0
0.0500000007 -0.0149999997 0
0.0466666669 -0.0149999997 0
0.043333333 -0.0149999997 0
0.0399999991 -0.0149999997 0
0.0366666652 -0.0149999997 0
0.0333333351 -0.0149999997 0
0.0299999993 -0.0149999997 0
0.0266666673 -0.0149999997 0
0.0233333334 -0.0149999997 0
0.0199999996 -0.0149999997 0
0.0166666675 -0.0149999997 0
0.0133333337 -0.0149999997 0
0.00999999978 -0.0149999997 0
0.00666666683 -0.0149999997 0
0.00333333341 -0.0149999997 0
0.0 -0.0149999997 0
0.100000001 -0.0183333326 0
0.0966666639 -0.0183333326 0
0.0933333337 -0.0183333326 0
0.0900000036 -0.0183333326 0
0.086666666 -0.0183333326 0
0.0833333358 -0.0183333326 0
0.0799999982 -0.0183333326 0
0.0766666681 -0.0183333326 0
0.0733333305 -0.0183333326 0
0.0700000003 -0.0183333326 0
0.0666666701 -0.0183333326 0
0.0633333325 -0.0183333326 0
0.0599999987 -0.0183333326 0
0.0566666685 -0.0183333326 0
0.0533333346 -0.0183333326 0
0.0500000007 -0.0183333326 0
0.0466666669 -0.0183333326 0
0.043333333 -0.0183333326 0
0.0399999991 -0.0183333326 0
0.0366666652 -0.0183333326 0
0.0333333351 -0.0183333326 0
0.0299999993 -0.0183333326 0
0.0266666673 -0.0183333326 0
0.0233333334 -0.0183333326 0
0.0199999996 -0.0183333326 0
0.0166666675 -0.0183333326 0
0.0133333337 -0.0183333326 0
0.00999999978 -0.0183333326 0
0.00666666683 -0.0183333326 0
0.00333333341 -0.0183333326 0
0.0 -0.0183333326 0
0.100000001 -0.0216666665 0
0.0966666639 -0.0216666665 0
0.0933333337 -0.0216666665 0
0.0900000036 -0.0216666665 0
0.086666666 -0.0216666665 0
0.0833333358 -0.0216666665 0
0.0799999982 -0.0216666665 0
0.0766666681 -0.0216666665 0
0.0733333305 -0.0216666665 0
0.0700000003 -0.0216666665 0
0.0666666701 -0.0216666665 0
0.0633333325 -0.0216666665 0
0.0599999987 -0.0216666665 0
0.0566666685 -0.0216666665 0
0.0533333346 -0.0216666665 0
0.0500000007 -0.0216666665 0
0.0466666669 -0.0216666665 0
0.043333333 -0.0216666665 0
0.0399999991 -0.0216666665 0
0.0366666652 -0.0216666665 0
0.0333333351 -0.0216666665 0
0.0299999993 -0.0216666665 0
0.0266666673 -0.0216666665 0
0.0233333334 -0.0216666665 0
0.0199999996 -0.0216666665 0
0.0166666675 -0.0216666665 0
0.0133333337 -0.0216666665 0
0.00999999978 -0.0216666665 0
0.00666666683 -0.0216666665 0
0.00333333341 -0.0216666665 0
0.0 -0.0216666665 0
0.100000001 -0.0250000004 0
0.0966666639 -0.0250000004 0
0.0933333337 -0.0250000004 0
0.0900000036 -0.0250000004 0
0.086666666 -0.0250000004 0
0.0833333358 -0.0250000004 0
0.0799999982 -0.0250000004 0
0.0766666681 -0.0250000004 0
0.0733333305 -0.0250000004 0
0.0700000003 -0.0250000004 0
0.0666666701 -0.0250000004 0
0.0633333325 -0.0250000004 0
0.0599999987 -0.0250000004 0
0.0566666685 -0.0250000004 0
0.0533333346 -0.0250000004 0
0.0500000007 -0.0250000004 0
0.0466666669 -0.0250000004 0
0.043333333 -0.0250000004 0
0.0399999991 -0.0250000004 0
0.0366666652 -0.0250000004 0
0.0333333351 -0.0250000004 0
0.0299999993 -0.0250000004 0
0.0266666673 -0.0250000004 0
0.0233333334 -0.0250000004 0
0.0199999996 -0.0250000004 0
0.0166666675 -0.0250000004 0
0.0133333337 -0.0250000004 0
0.00999999978 -0.0250000004 0
0.00666666683 -0.0250000004 0
0.00333333341 -0.0250000004 0
0.0 -0.0250000004 0
0.100000001 -0.0283333343 0
0.0966666639 -0.0283333343 0
0.0933333337 -0.0283333343 0
0.0900000036 -0.0283333343 0
0.086666666 -0.0283333343 0
0.0833333358 -0.0283333343 0
0.0799999982 -0.0283333343 0
0.0766666681 -0.0283333343 0
0.0733333305 -0.0283333343 0
0.0700000003 -0.0283333343 0
0.0666666701 -0.0283333343 0
0.0633333325 -0.0283333343 0
0.0599999987 -0.0283333343 0
0.0566666685 -0.0283333343 0
0.0533333346 -0.0283333343 0
0.0500000007 -0.0283333343 0
0.0466666669 -0.0283333343 0
0.043333333 -0.0283333343 0
0.0399999991 -0.0283333343 0
0.0366666652 -0.0283333343 0
0.0333333351 -0.0283333343 0
0.0299999993 -0.0283333343 0
0.0266666673 -0.0283333343 0
0.0233333334 -0.0283333343 0
0.0199999996 -0.0283333343 0
0.0166666675 -0.0283333343 0
0.0133333337 -0.0283333343 0
0.00999999978 -0.0283333343 0
0.00666666683 -0.0283333343 0
0.00333333341 -0.0283333343 0
0.0 -0.0283333343 0
[...]
POINT_DATA 961
SCALARS Temp float 1
LOOKUP_TABLE default
318.63120613643787
287.1156009564488
262.930117463404
245.39961025150225
233.41708462072523
225.6978895530177
221.0095370817184
218.32195004281513
216.8653909218457
216.1175254007687
215.75286831317587
215.58359698227324
215.508647861694
215.47706348604098
215.46480362742906
215.46164476054273
215.4648036265124
215.47706348338758
215.50864790981288
215.5835970990299
215.75286800784494
216.11752562157912
216.86539194354404
218.32194978995665
221.00954053849696
225.69788547036967
233.4170884181012
245.3995998906
262.9301203617907
287.115631578357
318.63120592633607
287.1156337177653
254.47281886916582
229.4217135328643
211.26320558949692
198.85094412267782
190.85454418113915
185.99757436283693
183.21316789183084
181.70404368016077
180.92913857474645
180.55127176832158
180.3758566233823
180.29818187097743
180.265446707342
180.25273940388632
180.2494651233826
180.25273940293624
180.26544670459168
180.29818192084784
180.37585674437983
180.55127145191855
180.92913880354794
181.7040447387592
183.21316762984418
185.99757794403027
190.85453995174544
198.85094805632082
211.26319485721024
229.4217165350303
254.47285058668703
287.1156335001837
262.9301220272885
229.42168342585597
203.7046477930354
185.06186360267233
172.31723685514953
164.10569525503138
159.11734372410297
156.25717214924939
154.70672353240812
153.91045828239848
153.5221044709452
153.34178728379752
153.26192688174427
153.22826442955022
153.21519502928302
153.21182709132881
153.21519502830571
153.2282644267216
153.26192693302178
153.34178740818524
153.52210414572875
153.91045851752796
154.7067246200745
156.25717188008073
159.1173474024225
164.1056909114757
172.31724089434522
185.0618525835449
203.7046508751279
229.4217159854827
262.9301218040334
245.399600138453
211.26315962539636
185.0618479024735
166.06577578003507
153.07773206706645
144.7078979936321
139.62237626360968
136.70584801488843
135.12447315985494
134.3121204665868
133.91581661479665
133.73175866225694
133.65021939999974
133.61584013955652
133.60248926120153
133.59904825620853
133.60248926020301
133.61584013666695
133.65021945236086
133.73175878923823
133.9158162828752
134.31212070649775
135.1244742693332
136.7058477403394
139.6223800139462
144.70789356581628
153.0777361837241
166.06576455121544
185.06185104277552
211.26319279668405
245.39959991115055
233.417088786889
198.85091250150728
172.31723627909207
153.07774768528833
139.921173892246
131.44111855680546
126.28749759464431
123.33119279245645
121.72782468047735
120.90394069595959
120.50189197986322
120.31510863865684
120.23233621418876
120.19742628530027
120.18386557400422
120.18036985802323
120.18386557298994
120.19742628236551
120.23233626734853
120.31510876753364
120.50189164307544
120.90394093931134
121.72782580551863
123.33119251407622
126.28750139561122
131.4411140700892
139.92117806267015
153.07773631161712
172.31723945941792
198.85094609196284
233.41708855687585
225.6978873624963
190.85450568541637
164.10568787623058
144.70790681198986
131.44111153538813
122.88848329392661
117.68968092737563
114.70676420994347
113.08854964108001
112.25680827559664
111.85080715624537
111.66213041346037
111.57849292564441
111.54320723006016
111.52949670635621
111.52596172303596
111.52949670533062
111.54320722709332
111.57849297936673
111.66213054365892
111.85080681609186
112.25680852130421
113.08855077666838
114.70676392897306
117.68968476205933
122.8884787682506
131.44111574108098
144.7078953438369
164.1056910825209
190.85453954672838
225.6978871307801
221.00954079827994
185.99754181022243
159.11734260568682
139.62239154685443
126.28749704338468
117.6896874918179
112.4625124789968
109.46272443359629
107.83500099389632
106.99817290472687
106.58958464127751
106.39965454908096
106.31543798620137
106.27989801846044
106.2660851525647
106.26252318168265
106.26608515153123
106.27989801547162
106.31543804030201
106.39965468015824
106.5895842989077
106.9981731519679
107.8350021362708
109.46272415096448
112.46251633494361
117.68968294176067
126.28750127094182
139.6223800205048
159.11734582787278
185.9975758366134
221.00954056555946
218.3219505730227
183.21313193666538
156.25716762595292
136.70585987448118
123.33118872381594
114.70676724783644
109.46272086608556
106.45279459495741
104.81929216665836
103.97933558707412
103.56913641402798
103.37841605443057
103.29382975757406
103.25812545482795
103.24424573574375
103.2406660159013
103.24424573470509
103.2581254518248
103.29382981191752
103.37841618606467
103.56913607026877
103.97933583526401
104.81929331317781
106.45279431131408
109.46272473473567
114.70676268333668
123.33119296419146
136.7058483142528
156.25717085733118
183.21316605804853
218.32195033974597
216.8653924626658
181.70400871690705
154.70672007726552
135.12448613546843
121.72782171740026
113.08855380731427
107.83499854948936
104.81929330057712
103.1824562533458
102.34067097406881
101.92951744257351
101.73832242904761
101.65351097977116
101.61770525784492
101.60378379345387
101.60019290798925
101.60378379241196
101.6177052548328
101.65351103426318
101.73832256101771
101.92951709798497
102.34067122281705
103.18245740227033
104.81929301634902
107.83500242533556
113.08854923470804
121.72782596489138
135.12447455657545
154.70672331367265
181.70404288998213
216.86539222909866
216.11752570324956
180.9291022999588
153.91045350491734
134.31213210707165
120.90393636529117
112.25681106792163
106.99816907172541
103.97933533093898
102.34066957974727
101.49786757211145
101.08617576953449
100.89470907437817
100.80976682716391
100.77390133238923
100.75995495161135
100.75635734835832
100.75995495056749
100.77390132937187
100.80976688174286
100.89470920654183
101.08617542447438
101.4978678211723
102.34067072999852
103.9793350463899
106.99817295144162
112.2568064909979
120.90394061652879
134.31212051842962
153.91045674393223
180.92913649968867
216.11752546953954
215.75286831034194
180.5512351632117
153.52209936629154
133.91582792817752
120.50188731047764
111.85080960975664
106.58958046396988
103.56913581403182
101.92951570285648
101.08617542451782
100.67419433576937
100.48257934666351
100.39756457618786
100.36166542898002
100.34770483090259
100.34410336204004
100.34770482985772
100.36166542595961
100.39756463081527
100.48257947893343
100.67419399045379
101.08617567374543
101.92951685380447
103.56913552931493
106.5895843456655
111.85080503064677
120.50189156358977
133.9158163346974
153.5221026065908
180.55126937599582
215.7528680765655
215.58359730030756
180.37582034428266
153.3417825199961
133.73177032674113
120.31510432230621
111.66213322512205
106.39965073067451
103.37841581569867
101.73832105111836
100.8947090920751
100.48257970978057
100.29088747077417
100.20583429970712
100.16991704776447
100.15594869347647
100.1523450972335
100.15594869243088
100.1699170447425
100.20583435436033
100.29088760309988
100.48257936433278
100.89470934138754
101.7383222024151
103.37841553089824
106.3996546133345
111.66212864495807
120.31510857631147
133.73175873097492
153.34178576089792
180.37585456315347
215.5835970665015
215.50864813209043
180.29814553962305
153.26192206678564
133.65023101371187
120.23233184485701
111.57849568450901
106.31543411391111
103.29382946515216
101.65350954784896
100.80976679099531
100.39756488546296
100.20583424577387
100.12076166610976
100.08483511387598
100.07086271835473
100.06725800382898
100.07086271730877
100.0848351108529
100.12076172077616
100.20583437812732
100.39756453994984
100.80976704034885
101.6535106993122
103.29382918031197
106.31543799701896
111.57849110386026
120.23233609926812
133.65021941691535
153.261925307957
180.29817976120083
215.50864789827222
215.47706371380744
180.2654103305827
153.2282595689843
133.61585170731155
120.19742186867882
111.54320994144213
106.27989409802427
103.25812511422423
101.61770377752852
100.7739012478393
100.36166568985969
100.16991694537919
100.08483506541667
100.04890398548426
100.03492959523905
100.03132432399592
100.03492959419309
100.0489039824609
100.08483512008934
100.16991707774596
100.36166534431592
100.77390149721172
101.61770492906712
103.25812482936612
106.27989798132985
111.5432053605815
120.19742612326532
133.6158401100735
153.22826281027037
180.26544455330625
215.47706347998414
215.4648038610988
180.25270303276935
153.21519017494032
133.6025008355555
120.18386116383574
111.52949942438505
106.26608123869218
103.24424540180834
101.60378231979242
100.75995487376545
100.34770509850536
100.15594859780359
100.07086267661167
100.03492960195882
100.02095432237219
100.0173488010871
100.02095432132604
100.03492959893525
100.07086273128719
100.155948730176
100.3477047529487
100.75995512314589
101.60378347136223
103.24424511694292
106.26608512207791
111.52949484343954
120.1838654184921
133.60248923814348
153.21519341627138
180.25273725593934
215.4648036272736
215.46164499863556
180.2494287567274
153.21182224168436
133.59905983542546
120.18036545273031
111.52596444602739
106.26251927277582
103.24066568697565
101.60019143934433
100.75635727554848
100.34410363468758
100.15234500660456
100.06725796713194
100.03132433576313
100.01734880613479
100.01374321423232
100.01734880508866
100.0313243327395
100.0672580218082
100.15234513897853
100.34410328912743
100.75635752493105
101.60019259092263
103.24066540210816
106.26252315618275
111.52595986505956
120.18036970740476
133.59904823796816
153.21182548302698
180.2494629800128
215.46164476481
215.4648038633894
180.2527030351437
153.2151901773824
133.60250083805025
120.18386116636991
111.52949942694724
106.26608124127348
103.24424540440214
101.60378232239398
100.75995487637174
100.34770510111431
100.15594860041396
100.07086267922276
100.03492960457028
100.0209543249838
100.0173488036987
100.02095432393769
100.03492960154672
100.0708627338983
100.15594873278634
100.34770475555761
100.75995512575217
101.6037834739638
103.24424511953667
106.2660851246591
111.52949484600163
120.18386542102616
133.60248924063822
153.21519341871357
180.25273725831386
215.4648036295645
215.47706371978063
180.26541033677364
153.2282595753511
133.61585171381444
120.19742187528261
111.54320994811773
106.27989410474838
103.25812512097995
101.61770378430381
100.77390125462614
100.361665696653
100.16991695217608
100.08483507221528
100.04890399228388
100.034929602039
100.03132433079595
100.03492960099311
100.04890398926057
100.08483512688802
100.16991708454277
100.36166535110931
100.7739015039985
101.61770493584233
103.25812483612175
106.2798979880541
111.54320536725704
120.19742612986919
133.61584011657644
153.22826281663717
180.26544455949735
215.4770634859576
215.5086481464311
180.29814555448544
153.26192208206712
133.6502310293159
120.2323318606987
111.57849570051778
106.31543413003213
103.2938294813452
101.65350956408604
100.80976680725804
100.39756490173993
100.20583426205842
100.12076168239821
100.08483513016613
100.07086273464573
100.06725802012019
100.0708627335999
100.0848351271433
100.12076173706458
100.20583439441191
100.39756455622675
100.80976705661145
101.65351071554909
103.29382919650487
106.3154380131401
111.578491119869
120.23233611510983
133.65021943251946
153.26192532323861
180.29817977606334
215.5086479126128
215.5835973365404
180.37582038183157
153.34178255859663
133.731770366146
120.31510436229853
111.66213326552388
106.39965077134865
103.3784158565449
101.73832109206855
100.89470913308502
100.48257975082328
100.29088751183409
100.20583434077547
100.16991708883698
100.1559487345505
100.15234513830809
100.15594873350508
100.16991708581484
100.20583439542874
100.29088764415965
100.4825794053754
100.89470938239748
101.73832224336515
103.37841557174441
106.39965465400833
111.66212868535986
120.31510861630377
133.73175877037986
153.34178579949858
180.3758546007023
215.58359710273456
215.75286853229795
180.5512353932145
153.52209960269593
133.9158281694481
120.50188755527665
111.850809856993
106.58958071280935
103.56913606387464
101.92951595329725
101.08617567529784
100.67419458673294
100.48257959772187
100.39756482729285
100.36166568010678
100.3477050820386
100.34410361317856
100.34770508099363
100.36166567708634
100.39756488192019
100.48257972999161
100.67419424141723
101.08617592452543
101.92951710424522
103.5691357791577
106.58958459450483
111.85080527788323
120.50189180838878
133.91581657596805
153.52210284299525
180.5512696059986
215.7528682985217
216.11752557430157
180.92910216634178
153.9104533675983
134.31213196695057
120.90393622314924
112.25681092439271
106.99816892729099
103.97933518594242
102.34066943441887
101.49786742659649
101.08617562391957
100.89470892871212
100.80976668147316
100.773901186687
100.75995480590419
100.75635720264977
100.7599548048603
100.77390118366948
100.80976673605191
100.89470906087571
101.08617527885933
101.49786767565729
102.34067058467015
103.97933490139332
106.9981728070073
112.2568063474689
120.90394047438693
134.31212037830844
153.91045660661322
180.92913636607182
216.1175253405917
216.86539335082765
181.70400963714818
154.7067210227806
135.12448709995215
121.72782269542176
113.08855479451309
107.83499954259463
104.81929429729158
103.1824572521552
102.34067197403421
101.92951844314615
101.7383234299243
101.65351198079298
101.61770625893264
101.60378479456882
101.60019390911155
101.6037847935269
101.61770625592042
101.653512035285
101.73832356189433
101.92951809855751
102.34067222278236
103.18245840107971
104.8192940130636
107.83500341844092
113.08855022190684
121.7278269429128
135.12447552105914
154.70672425918775
181.70404381022337
216.8653931172606
218.32195006667106
183.21313141204857
156.25716708699375
136.70585932480535
123.33118816653416
114.70676668543192
109.46272030040878
106.4527940272981
104.81929159785882
103.97933501765141
103.56913584428132
103.37841548452339
103.29382918759107
103.2581248848109
103.24424516571273
103.24066544586653
103.24424516467415
103.25812488180775
103.29382924193447
103.37841561615741
103.56913550052201
103.97933526584123
104.81929274437827
106.4527937436548
109.46272416905909
114.70676212093221
123.33119240690958
136.70584776457724
156.2571703183722
183.21316553343183
218.32194983339437
221.0095448712731
185.99754602981474
159.11734693973418
139.62239596577916
126.28750152199085
117.68969201017589
112.4625170224294
109.46272899201304
107.83500556080332
106.9981774762013
106.58958921508844
106.39965912403063
106.31544256168026
106.2799025941731
106.26608972837184
106.26252775751487
106.26608972733834
106.27990259118428
106.31544261578085
106.39965925510775
106.58958887271852
106.99817772344217
107.8350067031777
109.46272870938125
112.46252087837635
117.68968746011878
126.28750574954806
139.62238443942977
159.11735016192029
185.99758005620555
221.00954463855294
225.69788904738036
190.85450743082825
164.1056896686632
144.7079086390621
131.4411133866189
122.8884851610943
117.68968280448718
114.70676609292632
113.08855152734745
112.2568101636076
111.85080904513609
111.66213230277397
111.57849481515174
111.54320911965196
111.5294985959818
111.52596361267037
111.5294985949562
111.54320911668506
111.57849486887409
111.66213243297241
111.8508087049825
112.256810409315
113.08855266293584
114.70676581195607
117.68968663917079
122.88848063541828
131.44111759231188
144.70789717090946
164.1056928749536
190.8545412921404
225.6978888156644
233.41708353656247
198.8509070627408
172.31723069428938
153.07774199324658
139.92116812571155
131.4411127413622
126.28749174885034
123.33118692884936
121.72781880697046
120.90393481723419
120.50188609852377
120.31510275607036
120.23233033103486
120.19742040190083
120.18385969050732
120.18036397450093
120.1838596894931
120.19742039896627
120.23233038419465
120.31510288494705
120.50188576173569
120.90393506058578
121.72781993201146
123.33118665046895
126.28749554981722
131.4411082546459
139.92117229613578
153.07773061957548
172.31723387461554
198.85094065319674
233.41708330654942
245.399608372972
211.26316815506266
185.06185666006215
166.06578470421073
153.07774110628944
144.7079071078754
139.62238542404847
136.70585720221112
135.1244823619839
134.312129676447
133.91582582849244
133.7317678777644
133.65022861632337
133.6158493562301
133.60249847801288
133.5990574730558
133.60249847701454
133.61584935334065
133.65022866868452
133.73176800474548
133.91582549657087
134.31212991635772
135.12448347146184
136.70585692766184
139.6223891743848
144.7079026800596
153.07774522294713
166.0657734753913
185.06185980036446
211.26320132635018
245.39960814566965
262.93011458388696
229.42167571592432
203.70463987781022
185.06185553791292
172.31722868755799
164.1056870207207
159.11733544894165
156.25716385046292
154.70671522069688
153.91044996398546
153.52209614923134
153.34177896053566
153.26191855779012
153.22825610530114
153.2151867049186
153.21181876693475
153.2151867039414
153.2282561024725
153.26191860906735
153.3417790849233
153.5220958240147
153.91045019911485
154.706716308363
156.25716358129395
159.1173391272609
164.10568267716494
172.31723272675373
185.0618445187854
203.70464295990277
229.42170827555134
262.93011436063205
287.1156593349458
254.4728454028892
229.42174077103812
211.2632333393298
198.8509722231341
190.8545725081486
185.99760282791615
183.21319643635516
181.70407226791409
180.929167184789
180.5513003892794
180.37588524942925
180.29821049928765
180.26547533661
180.2527680335275
180.24949375312005
180.25276803257734
180.26547533385963
180.29821054915783
180.37588537042666
180.55130007287624
180.92916741359028
181.70407332651212
183.21319617436825
185.9976064091092
190.85456827875475
198.85097615677688
211.26322260704325
229.42174377320393
254.4728771204095
287.1156591173645
318.6312060201841
287.11560083605866
262.9301173398817
245.39961012574994
233.41708449348346
225.69788942484308
221.0095369529955
218.32194991378944
216.86539079266305
216.11752527150915
215.75286818388074
215.58359685296224
215.5086477323764
215.47706335672095
215.46480349810778
215.46164463122125
215.46480349719127
215.47706335406727
215.50864778049532
215.5835969697188
215.75286787854955
216.11752549231934
216.86539181436117
218.3219496609308
221.00954040977382
225.6978853421948
233.41708829085934
245.3995997648477
262.9301202382682
287.11563145796697
318.63120581008246
