# vtk DataFile Version 2.0
Unstructured Grid Example
ASCII
DATASET UNSTRUCTURED_GRID

POINTS 961 float
0.100000001 0.00499999989 0
0.0966666639 0.00499999989 0
0.0933333337 0.00499999989 0
0.0900000036 0.00499999989 0
0.086666666 0.00499999989 0
0.0833333358 0.00499999989 0
0.0799999982 0.00499999989 0
0.0766666681 0.00499999989 0
0.0733333305 0.00499999989 0
0.0700000003 0.00499999989 0
0.0666666701 0.00499999989 0
0.0633333325 0.00499999989 0
0.0599999987 0.00499999989 0
0.0566666685 0.00499999989 0
0.0533333346 0.00499999989 0
0.0500000007 0.00499999989 0
0.0466666669 0.00499999989 0
0.043333333 0.00499999989 0
0.0399999991 0.00499999989 0
0.0366666652 0.00499999989 0
0.0333333351 0.00499999989 0
0.0299999993 0.00499999989 0
0.0266666673 0.00499999989 0
0.0233333334 0.00499999989 0
0.0199999996 0.00499999989 0
0.0166666675 0.00499999989 0
0.0133333337 0.00499999989 0
0.00999999978 0.00499999989 0
0.00666666683 0.00499999989 0
0.00333333341 0.00499999989 0
0.0 0.00499999989 0
0.100000001 0.00166666671 0
0.0966666639 0.00166666671 0
0.0933333337 0.00166666671 0
0.0900000036 0.00166666671 0
0.086666666 0.00166666671 0
0.0833333358 0.00166666671 0
0.0799999982 0.00166666671 0
0.0766666681 0.00166666671 0
0.0733333305 0.00166666671 0
0.0700000003 0.00166666671 0
0.0666666701 0.00166666671 0
0.0633333325 0.00166666671 0
0.0599999987 0.00166666671 0
0.0566666685 0.00166666671 0
0.0533333346 0.00166666671 0
0.0500000007 0.00166666671 0
0.0466666669 0.00166666671 0
0.043333333 0.00166666671 0
0.0399999991 0.00166666671 0
0.0366666652 0.00166666671 0
0.0333333351 0.00166666671 0
0.0299999993 0.00166666671 0
0.0266666673 0.00166666671 0
0.0233333334 0.00166666671 0
0.0199999996 0.00166666671 0
0.0166666675 0.00166666671 0
0.0133333337 0.00166666671 0
0.00999999978 0.00166666671 0
0.00666666683 0.00166666671 0
0.00333333341 0.00166666671 0
0.0 0.00166666671 0
0.100000001 -0.00166666671 0
0.0966666639 -0.00166666671 0
0.0933333337 -0.00166666671 0
0.0900000036 -0.00166666671 0
0.086666666 -0.00166666671 0
0.0833333358 -0.00166666671 0
0.0799999982 -0.00166666671 0
0.0766666681 -0.00166666671 0
0.0733333305 -0.00166666671 0
0.0700000003 -0.00166666671 0
0.0666666701 -0.00166666671 0
0.0633333325 -0.00166666671 0
0.0599999987 -0.00166666671 0
0.0566666685 -0.00166666671 0
0.0533333346 -0.00166666671 0
0.0500000007 -0.00166666671 0
0.0466666669 -0.00166666671 0
0.043333333 -0.00166666671 0
0.0399999991 -0.00166666671 0
0.0366666652 -0.00166666671 0
0.0333333351 -0.00166666671 0
0.0299999993 -0.00166666671 0
0.0266666673 -0.00166666671 0
0.0233333334 -0.00166666671 0
0.0199999996 -0.00166666671 0
0.0166666675 -0.00166666671 0
0.0133333337 -0.00166666671 0
0.00999999978 -0.00166666671 0
0.00666666683 -0.00166666671 0
0.00333333341 -0.00166666671 0
0.0 -0.00166666671 0
0.100000001 -0.00499999989 0
0.0966666639 -0.00499999989 0
0.0933333337 -0.00499999989 0
0.0900000036 -0.00499999989 0
0.086666666 -0.00499999989 0
0.0833333358 -0.00499999989 0
0.0799999982 -0.00499999989 0
0.0766666681 -0.00499999989 0
0.0733333305 -0.00499999989 0
0.0700000003 -0.00499999989 0
0.0666666701 -0.00499999989 0
0.0633333325 -0.00499999989 0
0.0599999987 -0.00499999989 0
0.0566666685 -0.00499999989 0
0.0533333346 -0.00499999989 0
0.0500000007 -0.00499999989 0
0.0466666669 -0.00499999989 0
0.043333333 -0.00499999989 0
0.0399999991 -0.00499999989 0
0.0366666652 -0.00499999989 0
0.0333333351 -0.00499999989 0
0.0299999993 -0.00499999989 0
0.0266666673 -0.00499999989 0
0.0233333334 -0.00499999989 0
0.0199999996 -0.00499999989 0
0.0166666675 -0.00499999989 0
0.0133333337 -0.00499999989 0
0.00999999978 -0.00499999989 0
0.00666666683 -0.00499999989 0
0.00333333341 -0.00499999989 0
0.0 -0.00499999989 0
0.100000001 -0.00833333377 0
0.0966666639 -0.00833333377 0
0.0933333337 -0.00833333377 0
0.0900000036 -0.00833333377 0
0.086666666 -0.00833333377 0
0.0833333358 -0.00833333377 0
0.0799999982 -0.00833333377 0
0.0766666681 -0.00833333377 0
0.0733333305 -0.00833333377 0
0.0700000003 -0.00833333377 0
0.0666666701 -0.00833333377 0
0.0633333325 -0.00833333377 0
0.0599999987 -0.00833333377 0
0.0566666685 -0.00833333377 0
0.0533333346 -0.00833333377 0
0.0500000007 -0.00833333377 0
0.0466666669 -0.00833333377 0
0.043333333 -0.00833333377 0
0.0399999991 -0.00833333377 0
0.0366666652 -0.00833333377 0
0.0333333351 -0.00833333377 0
0.0299999993 -0.00833333377 0
0.0266666673 -0.00833333377 0
0.0233333334 -0.00833333377 0
0.0199999996 -0.00833333377 0
0.0166666675 -0.00833333377 0
0.0133333337 -0.00833333377 0
0.00999999978 -0.00833333377 0
0.00666666683 -0.00833333377 0
0.00333333341 -0.00833333377 0
0.0 -0.00833333377 0
0.100000001 -0.0116666667 0
0.0966666639 -0.0116666667 0
0.0933333337 -0.0116666667 0
0.0900000036 -0.0116666667 0
0.086666666 -0.0116666667 0
0.0833333358 -0.0116666667 0
0.0799999982 -0.0116666667 0
0.0766666681 -0.0116666667 0
0.0733333305 -0.0116666667 0
0.0700000003 -0.0116666667 0
0.0666666701 -0.0116666667 0
0.0633333325 -0.0116666667 0
0.0599999987 -0.0116666667 0
0.0566666685 -0.0116666667 0
0.0533333346 -0.0116666667 0
0.0500000007 -0.0116666667 0
0.0466666669 -0.0116666667 0
0.043333333 -0.0116666667 0
0.0399999991 -0.0116666667 0
0.0366666652 -0.0116666667 0
0.0333333351 -0.0116666667 0
0.0299999993 -0.0116666667 0
0.0266666673 -0.0116666667 0
0.0233333334 -0.0116666667 0
0.0199999996 -0.0116666667 0
0.0166666675 -0.0116666667 0
0.0133333337 -0.0116666667 0
0.00999999978 -0.0116666667 0
0.00666666683 -0.0116666667 0
0.00333333341 -0.0116666667 0
0.0 -0.0116666667 0
0.100000001 -0.0149999997 0
0.0966666639 -0.0149999997 0
0.0933333337 -0.0149999997 0
0.0900000036 -0.0149999997 0
0.086666666 -0.0149999997 0
0.0833333358 -0.0149999997 0
0.0799999982 -0.0149999997 0
0.0766666681 -0.0149999997 0
0.0733333305 -0.0149999997 0
0.0700000003 -0.0149999997 0
0.0666666701 -0.0149999997 0
0.0633333325 -0.0149999997 0
0.0599999987 -0.0149999997 0
0.0566666685 -0.0149999997 0
0.0533333346 -0.0149999997 0
0.0500000007 -0.0149999997 0
0.0466666669 -0.0149999997 0
0.043333333 -0.0149999997 0
0.0399999991 -0.0149999997 0
0.0366666652 -0.0149999997 0
0.0333333351 -0.0149999997 0
0.0299999993 -0.0149999997 0
0.0266666673 -0.0149999997 0
0.0233333334 -0.0149999997 0
0.0199999996 -0.0149999997 0
0.0166666675 -0.0149999997 0
0.0133333337 -0.0149999997 0
0.00999999978 -0.0149999997 0
0.00666666683 -0.0149999997 0
0.00333333341 -0.0149999997 0
0.0 -0.0149999997 0
0.100000001 -0.0183333326 0
0.0966666639 -0.0183333326 0
0.0933333337 -0.0183333326 0
0.0900000036 -0.0183333326 0
0.086666666 -0.0183333326 0
0.0833333358 -0.0183333326 0
0.0799999982 -0.0183333326 0
0.0766666681 -0.0183333326 0
0.0733333305 -0.0183333326 0
0.0700000003 -0.0183333326 0
0.0666666701 -0.0183333326 0
0.0633333325 -0.0183333326 0
0.0599999987 -0.0183333326 0
0.0566666685 -0.0183333326 0
0.0533333346 -0.0183333326 0
0.0500000007 -0.0183333326 0
0.0466666669 -0.0183333326 0
0.043333333 -0.0183333326 0
0.0399999991 -0.0183333326 0
0.0366666652 -0.0183333326 0
0.0333333351 -0.0183333326 0
0.0299999993 -0.0183333326 0
0.0266666673 -0.0183333326 0
0.0233333334 -0.0183333326 0
0.0199999996 -0.0183333326 0
0.0166666675 -0.0183333326 0
0.0133333337 -0.0183333326 0
0.00999999978 -0.0183333326 0
0.00666666683 -0.0183333326 0
0.00333333341 -0.0183333326 0
0.0 -0.0183333326 0
0.100000001 -0.0216666665 0
0.0966666639 -0.0216666665 0
0.0933333337 -0.0216666665 0
0.0900000036 -0.0216666665 0
0.086666666 -0.0216666665 0
0.0833333358 -0.0216666665 0
0.0799999982 -0.0216666665 0
0.0766666681 -0.0216666665 0
0.0733333305 -0.0216666665 0
0.0700000003 -0.0216666665 0
0.0666666701 -0.0216666665 0
0.0633333325 -0.0216666665 0
0.0599999987 -0.0216666665 0
0.0566666685 -0.0216666665 0
0.0533333346 -0.0216666665 0
0.0500000007 -0.0216666665 0
0.0466666669 -0.0216666665 0
0.043333333 -0.0216666665 0
0.0399999991 -0.0216666665 0
0.0366666652 -0.0216666665 0
0.0333333351 -0.0216666665 0
0.0299999993 -0.0216666665 0
0.0266666673 -0.0216666665 0
0.0233333334 -0.0216666665 0
0.0199999996 -0.0216666665 0
0.0166666675 -0.0216666665 0
0.0133333337 -0.0216666665 0
0.00999999978 -0.0216666665 0
0.00666666683 -0.0216666665 0
0.00333333341 -0.0216666665 0
0.0 -0.0216666665 0
0.100000001 -0.0250000004 0
0.0966666639 -0.0250000004 0
0.0933333337 -0.0250000004 0
0.0900000036 -0.0250000004 0
0.086666666 -0.0250000004 0
0.0833333358 -0.0250000004 0
0.0799999982 -0.0250000004 0
0.0766666681 -0.0250000004 0
0.0733333305 -0.0250000004 0
0.0700000003 -0.0250000004 0
0.0666666701 -0.0250000004 0
0.0633333325 -0.0250000004 0
0.0599999987 -0.0250000004 0
0.0566666685 -0.0250000004 0
0.0533333346 -0.0250000004 0
0.0500000007 -0.0250000004 0
0.0466666669 -0.0250000004 0
0.043333333 -0.0250000004 0
0.0399999991 -0.0250000004 0
0.0366666652 -0.0250000004 0
0.0333333351 -0.0250000004 0
0.0299999993 -0.0250000004 0
0.0266666673 -0.0250000004 0
0.0233333334 -0.0250000004 0
0.0199999996 -0.0250000004 0
0.0166666675 -0.0250000004 0
0.0133333337 -0.0250000004 0
0.00999999978 -0.0250000004 0
0.00666666683 -0.0250000004 0
0.00333333341 -0.0250000004 0
0.0 -0.0250000004 0
0.100000001 -0.0283333343 0
0.0966666639 -0.0283333343 0
0.0933333337 -0.0283333343 0
0.0900000036 -0.0283333343 0
0.086666666 -0.0283333343 0
0.0833333358 -0.0283333343 0
0.0799999982 -0.0283333343 0
0.0766666681 -0.0283333343 0
0.0733333305 -0.0283333343 0
0.0700000003 -0.0283333343 0
0.0666666701 -0.0283333343 0
0.0633333325 -0.0283333343 0
0.0599999987 -0.0283333343 0
0.0566666685 -0.0283333343 0
0.0533333346 -0.0283333343 0
0.0500000007 -0.0283333343 0
0.0466666669 -0.0283333343 0
0.043333333 -0.0283333343 0
0.0399999991 -0.0283333343 0
0.0366666652 -0.0283333343 0
0.0333333351 -0.0283333343 0
0.0299999993 -0.0283333343 0
0.0266666673 -0.0283333343 0
0.0233333334 -0.0283333343 0
0.0199999996 -0.0283333343 0
0.0166666675 -0.0283333343 0
0.0133333337 -0.0283333343 0
0.00999999978 -0.0283333343 0
0.00666666683 -0.0283333343 0
0.00333333341 -0.0283333343 0
0.0 -0.0283333343 0
[...]
POINT_DATA 961
SCALARS Temp float 1
LOOKUP_TABLE default
335.77218904797957
304.540009489685
279.89628016888776
261.3598816121865
248.08912832726702
239.05355979194417
233.20401481051027
229.60205631029996
227.49075038372726
226.31137586989195
225.68267070201176
225.36237666271967
225.20635852164858
225.1340845725936
225.10354530178822
225.09523510750967
225.10354529937084
225.1340845660907
225.20635862589782
225.3623768918946
225.6826701485561
226.3113762337527
227.49075191855863
229.60205593976252
233.20401926300465
239.05355482811103
248.08913263723545
261.3598703875936
279.89628317587324
304.54004025932414
335.7721888812816
304.5400423604261
272.1789704870409
246.6440819312046
227.4369716149258
213.68567703980943
204.32263548116302
198.26087218527726
194.5280888853031
192.34000507617907
191.11768622257867
190.46605662715817
190.13406712317365
189.97234379957334
189.89742325741403
189.8657642911464
189.85714917494172
189.8657642886404
189.8974232506727
189.97234390763685
190.1340673607217
190.466056053506
191.1176865996978
192.34000666685637
194.52808850128918
198.26087679938777
204.32263033731942
213.68568150590616
227.4369599840302
246.6440850469608
272.17900236910833
304.54004218772826
279.8962848459251
246.64405177968325
220.40483732310855
200.66680425796025
186.5343869646214
176.91102822267374
170.68012524455744
166.84277023434595
164.59312204348575
163.33625249085281
162.66611422740723
162.32464781298987
162.15828458145793
162.08120393135405
162.0486282326552
162.03976297873106
162.04862823007616
162.08120392441757
162.15828469262854
162.3246480573321
162.6661136374169
163.3362528786575
164.59312367900822
166.8427698395224
170.6801299876455
176.91102293551418
186.53439155467166
200.66679230512113
220.40484052489933
246.64408454043607
279.8962846685429
261.35987058444096
227.43692448334588
200.66678743384935
180.5277227352696
166.10669427021276
156.2856141728827
149.92580210022376
146.00844470229603
143.71150232243178
142.42797416614525
141.74348946318685
141.39464261575282
141.2246486880072
141.14586994153362
141.11257067423284
141.10350749141702
141.1125706715963
141.145869934443
141.2246488016135
141.39464286539632
141.7434888604995
142.42797456221348
143.71150399247006
146.00844429916503
149.9258069417797
156.2856087766489
166.10669895425502
180.52771053893113
200.66679070056037
227.43695790593893
261.3598704035845
248.0891329697662
213.68564563890587
186.53438675548338
166.10671147068496
151.47732588855922
141.5129745843513
135.05935723956787
131.0835091521323
128.7518129091023
127.44858851317771
126.75344407090024
126.39908138919819
126.22635805343567
126.14629545759979
126.11244641568088
126.10323237927226
126.11244641300054
126.14629545039247
126.22635816887797
126.3990816428125
126.75344345874858
127.44858891536825
128.75181460456395
131.0835087428937
135.05936215292945
141.51296910888385
151.47733064057
166.1066990988228
186.5343900688577
213.68567953614217
248.0891327864667
239.05355701376658
204.32259604484813
176.91102006067217
156.28562342618937
141.5129663507882
131.44966530241356
124.93093638780647
120.91426265267393
118.55816191782633
117.24101758218991
116.53828883592176
116.17997448333487
116.00528205748529
115.92428696554641
115.89003625341644
115.88071159869399
115.89003625070393
115.92428695825396
116.00528217425581
116.17997473980199
116.53828821701082
117.24101798872188
118.55816363119041
120.91426223914401
124.93094135113424
131.44965977206212
141.5129711496277
156.28561093384894
176.91102340596777
204.3226302659097
239.05355682883936
233.20401947633593
198.260840238717
170.68012497986157
149.9258195247459
135.05935718639546
124.93094470470784
118.36912470197387
114.32525985122788
111.95279219405562
110.62624339477097
109.91835092027651
109.55732461590887
109.38126994666324
109.29962469751149
109.26509203221102
109.25568940246964
109.26509202947581
109.29962469015922
109.38127006435599
109.55732487434
109.91835029674318
110.62624380424732
111.95279391946465
114.32525943481839
118.36912969846477
124.9309391381202
135.0593620159647
149.92580695368576
170.68012834593446
198.2608746699084
233.20401929038135
229.6020568864388
194.52805256213
166.84276559317667
146.00845772808802
131.0835045655337
120.91426642379606
114.32525524026592
110.2641102954623
107.88116082427419
106.54853935517575
105.83728360748924
105.47447510500778
105.29751710251735
105.21543692930452
105.18071421395246
105.17125877786893
105.18071421120185
105.21543692191197
105.29751722082374
105.4744753647343
105.8372829809306
106.54853976656159
107.88116255742516
110.2641098772077
114.3252602577503
120.91426083440281
131.08350941431203
146.00844510805538
166.84276897212075
194.52808712304784
229.6020566998701
227.49075253468556
192.33997030376653
164.5931190688395
143.71151709063165
128.7518100503188
118.55816745530541
111.95278934100055
107.88116260186162
105.49180132873856
104.15543157159897
103.44208012727476
103.07815017790391
102.9006180813865
102.8182588249503
102.78341313596083
102.7739233546091
102.78341313320024
102.81825881753159
102.90061820008448
103.07815043844857
103.44207949882053
104.15543198416879
105.49180306664404
107.8811621824776
111.95279437116558
118.55816185222474
128.75181491054167
143.71150444157306
164.5931224553775
192.3400049409382
227.4907523477685
226.31137616657227
191.11764948283027
163.33624753370768
142.42798693293457
127.44858359917237
117.24102105425547
110.62623844971759
106.54853903812734
104.15542946830588
102.81684722423948
102.10224609641082
101.73764031288135
101.55975851000233
101.47722747112437
101.44230540400793
101.43279417242229
101.44230540124106
101.47722746368957
101.55975862894007
101.73764057392115
102.10224546681968
102.81684763751178
104.1554312090026
106.54853861808299
110.62624348719628
117.24101544333439
127.44858846590024
142.4279742674695
163.33625092451754
191.1176841627253
226.3113759794675
225.68267045659547
190.4660193011605
162.66610868887244
141.7435016484489
126.75343855363263
116.53829170435628
109.91834536046932
105.83728267644082
103.44207740649586
102.102245479714
101.38693084438032
101.0219348436723
100.843848810243
100.7612163320564
100.72624872959523
100.71672463448515
100.72624872682454
100.76121632461214
100.84384892932133
101.0219351049993
101.38693021413599
102.10224589338523
103.44207914876033
105.83728225602698
109.91835040197962
116.53828608914422
126.75344342389174
141.74348897412918
162.66611208197617
190.46605400390246
225.6826702693945
225.3623770114157
190.13403040051912
162.32464290600373
141.39465545254748
126.39907652720092
116.1799780175743
109.55731972342026
105.47447484650179
103.07814813083661
101.73764037214877
101.02193552069569
100.65672360195417
100.47852320841044
100.39583326764019
100.36083961230406
100.351308112377
100.36083960953134
100.3958332601904
100.47852332756806
100.65672386344092
101.02193489009183
101.73764078603703
103.07814987394387
105.47447442589026
109.55732476705647
116.17997240011616
126.39908139929302
141.3946427736591
162.32464630028483
190.13406511493812
225.3623768241678
225.20635878436997
189.97230698172083
162.15827958193685
141.22466143341248
126.22635309538983
116.00528549624381
109.38126495622687
105.29751674657766
102.90061593613443
101.55975847143227
100.84384938951075
100.4785231103919
100.30026140641513
100.21754029363505
100.18253236146036
100.17299677862826
100.18253235868643
100.21754028618224
100.30026152561528
100.47852337196358
100.8438487587174
101.5597588854333
102.90061767967532
105.29751632586482
109.3812700009353
116.00527987766132
126.22635796839171
141.2246487522699
162.15828297679596
189.9723417018465
225.2063585971001
225.13408474135463
189.8973863393341
162.08119883121736
141.1458825855829
126.14629039503879
115.92429029935214
109.29961960044936
105.21543646665168
102.81825657240393
101.4772273252963
100.76121680402858
100.39583306214925
100.21754018613795
100.1348030425757
100.09978769623298
100.09024998050015
100.09978769345828
100.13480303512125
100.21754030535985
100.39583332376375
100.76121617314043
101.47722773935308
102.81825831615657
105.21543604588977
109.29962464567146
115.92428468023476
126.14629526846996
141.14586990338307
162.08120222634608
189.8974210621117
225.13408455407492
225.10354548457235
189.8657273864054
162.04862314729985
141.1125833340172
126.11244136846386
115.89003960307797
109.26508695076888
105.18071376720995
102.7834108992803
101.44230527419258
100.72624921764105
100.36083942285129
100.18253227001408
100.09978771229635
100.06476890835158
100.05523019294736
100.06476890557663
100.09978770484115
100.18253238924609
100.36083968448536
100.72624858671023
101.4423056882742
102.7834126431266
105.18071334642633
109.26509199621472
115.89003398372947
126.11244624207949
141.1125706513657
162.04862654254345
189.86576211030675
225.10354529728866
225.09523530190955
189.85711228191622
162.0397579057198
141.10352016399239
126.10322734488108
115.88071496142669
109.25568433410706
105.17125834433648
102.77392113115856
101.43279405589833
100.71672513585209
100.35130793624215
100.17299670050755
100.09025000989479
100.05523020627952
100.04569120097813
100.05523020350448
100.09025000243948
100.17299681974235
100.35130819788189
100.71672450490914
101.43279446998702
102.77392287503106
105.17125792354673
109.25568937961488
115.88070934201434
126.10323221854738
141.10350748121726
162.0397613009947
189.85714700612402
225.09523511462513
225.10354549029424
189.86572739233725
162.04862315340344
141.11258334025644
126.11244137480615
115.8900396094955
109.26508695723923
105.1807137737159
102.78341090580929
101.44230528073587
100.72624922419287
100.36083942940795
100.18253227657343
100.09978771885702
100.06476891491289
100.05523019950886
100.06476891213798
100.09978771140189
100.18253239580547
100.36083969104205
100.726248593262
101.44230569481743
102.78341264965552
105.18071335293219
109.26509200268505
115.89003399014699
126.11244624842168
141.11257065760486
162.04862654864706
189.86576211623864
225.1035453030108
225.1340847553899
189.8973863538837
162.08119884618708
141.14588260088328
126.14629041058951
115.9242903150849
109.29961961630947
105.21543648259727
102.81825658840438
101.47722734133063
100.76121682008295
100.39583307821495
100.21754020220973
100.13480305865076
100.09978771230942
100.09024999657717
100.09978770953492
100.13480305119641
100.21754032143174
100.39583333982955
100.76121618919477
101.47722775538732
102.8182583321569
105.21543606183518
109.29962466153168
115.9242846959677
126.14629528402072
141.1458699186834
162.08120224131582
189.89742107666143
225.1340845681105
225.20635881512553
189.97230701360152
162.1582796147337
141.22466146692736
126.22635312944527
116.0052855306901
109.38126499094443
105.29751678147542
102.90061597114719
101.55975850651528
100.84384942463494
100.47852314553921
100.30026144157476
100.21754032880102
100.18253239662936
100.17299681379795
100.18253239385538
100.2175403213483
100.30026156077498
100.47852340711084
100.84384879384153
101.55975892051619
102.900617714688
105.29751636076254
109.38127003565278
116.00527991210765
126.22635800244716
141.2246487857846
162.15828300959285
189.97234173372715
225.20635862785576
225.36237708214432
190.1340304738316
162.3246429814124
141.39465552959132
126.39907660546918
116.17997809672174
109.55731980317299
105.47447492665324
103.0781482112399
101.73764045270438
101.02193560133958
100.656723682647
100.47852328912936
100.3958333483722
100.36083969304205
100.35130819311664
100.36083969026924
100.39583334092241
100.47852340828692
100.65672394413359
101.02193497073559
101.7376408665925
103.07814995434723
105.47447450604169
109.55732484680894
116.17997247926363
126.3990814775612
141.39464285070295
162.32464637569362
190.13406518825056
225.36237689489639
225.68267085442403
190.46601971350375
162.6661091129525
141.7435020816447
126.75343899361837
116.53829214918747
109.9183458086107
105.83728312674654
103.44207785815586
102.10224593218524
101.38693129731698
101.02193529686484
100.84384926357009
100.76121678545071
100.72624918301975
100.71672508791823
100.72624918024906
100.76121677800633
100.8438493826484
101.0219355581917
101.38693066707262
102.10224634585649
103.44207960042033
105.8372827063326
109.91835085012087
116.53828653397528
126.75344386387748
141.74348940732492
162.6661125060562
190.46605441624556
225.68267066722314
226.31137594906423
191.1176492573939
163.3362473018758
142.42798669615073
127.44858335871426
117.24102081118743
110.6262382048761
106.5485387921333
104.15542922159518
102.81684697710256
102.10224584903119
101.73764006536942
101.55975826242137
101.47722722350919
101.44230515637743
101.4327939247873
101.44230515361042
101.47722721607437
101.55975838135903
101.7376403264091
102.10224521943994
102.81684739037485
104.15543096229192
106.54853837208876
110.62624324235478
117.24101520026639
127.4485882254421
142.42797403068553
163.33625069268555
191.1176839372891
226.3113757619595
227.49075387203933
192.3399716897827
164.59312049393506
143.71151854580862
128.75181152765592
118.55816894824954
111.95279084444695
107.88116411205961
105.49180284308375
104.15543308837931
103.44208164542306
103.07815169678781
102.9006196006488
102.81826034439744
102.7834146554898
102.77392487416087
102.78341465272914
102.81826033697877
102.9006197193468
103.07815195733238
103.44208101696873
104.15543350094907
105.4918045809891
107.88116369267566
111.95279587461208
118.55816334516895
128.75181638787888
143.71150589675023
164.59312388047314
192.34000632695444
227.49075368512254
229.6020561678798
194.52805181744955
166.84276482756906
146.00845694642246
131.0835037720855
120.91426562208778
114.32525443302893
110.26410948469278
107.88116001134904
106.54853854099376
105.83728279260663
105.47447428975121
105.29751628706993
105.21543611376465
105.18071339837195
105.17125796227708
105.18071339562132
105.21543610637201
105.29751640537623
105.47447454947765
105.83728216604779
106.54853895237937
107.88116174449989
110.26410906643808
114.32525945051353
120.91426003269467
131.08350862086388
146.00844432639016
166.84276820651334
194.52808637836756
229.6020559813114
233.20402473113083
198.2608456842549
170.68013057763153
149.92582523874762
135.05936298516582
124.93095056247262
118.36913059889915
114.32526577294749
111.95279813075429
110.62624934011046
109.91835687037994
109.55733056852502
109.38127590054695
109.29963065200273
109.26509798696665
109.25569535729858
109.26509798423142
109.29963064465042
109.38127601823955
109.5573308269561
109.91835624684654
110.62624974958659
111.9527998561633
114.3252653565382
118.3691355953901
124.93094499588494
135.05936781473517
149.9258126676878
170.6801339437047
198.26088011544644
233.20402454517654
239.05355901917238
204.32259812295575
176.91102219661516
156.2856256061032
141.5129685626026
131.4496675362919
124.93093863622794
120.91426491023132
118.55816418085648
117.24101984834883
116.53829110378962
116.17997675209519
116.00528432669157
115.9242892349644
115.89003852292588
115.8807138682286
115.89003852021337
115.9242892276718
116.00528444346212
116.17997700856237
116.53829048487847
117.24102025488068
118.55816589422047
120.91426449670153
124.93094359955575
131.44966200594058
141.51297336144236
156.2856131137631
176.91102554191102
204.32263234401773
239.05355883424525
248.08912696781337
213.6856394195092
186.53438036340503
166.10670494761746
151.47731927072704
141.51296790119454
135.05935051351906
131.08350239925448
128.75180614022912
127.4485817352065
126.75343728798673
126.39907460371724
126.22635126667952
126.14628867024138
126.1124396280638
126.10322559158402
126.11243962538357
126.14628866303404
126.22635138212166
126.39907485733164
126.75343667583486
127.4485821373969
128.75180783569067
131.08350199001586
135.05935542688053
141.51296242572695
151.47732402273803
166.1066925757555
186.5343836767798
213.68567331674575
248.08912678451384
261.3598794869189
227.43693370806267
200.6667969138799
180.52773240838613
166.10670408249706
156.28562408067776
149.92581207041576
146.00845471129966
143.71151235443537
142.427984211147
141.74349951520273
141.39465267138684
141.22465874542607
141.1458799997895
141.11258073284637
141.10351755012843
141.1125807302099
141.14587999269898
141.2246588590325
141.39465292103014
141.74349891251512
142.427984607215
143.71151402447336
146.00845430816867
149.9258169119717
156.28561868444413
166.1067087665395
180.52772021204797
200.66680018059114
227.43696713065543
261.3598793060627
279.89627711973185
246.6440437740142
220.40482909638695
200.66679586444042
186.53437845121613
176.91101962726273
170.68011659577434
166.84276155250393
164.59311334214215
163.33624377854122
162.66610550920726
162.3246390917679
162.158275858753
162.08119520795705
162.04861950896387
162.0397542549595
162.048619506385
162.08119520102034
162.1582759699233
162.32463933610998
162.66610491921674
163.33624416634564
164.5931149776643
166.8427611576802
170.68012133886228
176.9110143401031
186.53438304126638
200.66678391160121
220.40483229817772
246.64407653476732
279.8962769423495
304.5400680910036
272.1789971478621
246.64410932679291
227.43699956394013
213.68570538570717
204.3226640978246
198.26090097763057
194.52811778611732
192.34003404074437
191.11771522286048
190.4660856465386
190.13409615231515
189.97237283348497
189.89745229354227
189.86579332821378
189.85717821226493
189.86579332570759
189.89745228680064
189.97237294154831
190.13409638986312
190.46608507288644
191.1177155999794
192.34003563142136
194.52811740210328
198.2609055917408
204.32265895398103
213.6857098518035
227.43698793304495
246.6441124425489
272.17902902992853
304.54006791830585
335.77218895799126
304.5400093964593
279.8962800731375
261.3598815145672
248.08912822833597
239.0535596921417
233.20401471015924
229.60205620962205
227.49075028286478
226.31137576893047
225.68267060099984
225.36237656168313
225.20635842060088
225.13408447154058
225.10354520073312
225.09523500645412
225.10354519831571
225.13408446503732
225.20635852484975
225.362376790858
225.68267004754384
226.311376132791
227.4907518176959
229.6020558390844
233.20401916265342
239.05355472830834
248.0891325383045
261.3598702899742
279.89628308012294
304.5400401660984
335.7721887912932
