# vtk DataFile Version 2.0
Unstructured Grid Example
ASCII
DATASET UNSTRUCTURED_GRID

POINTS 961 float
0.100000001 0.00499999989 0
0.0966666639 0.00499999989 0
0.0933333337 0.00499999989 0
0.0900000036 0.00499999989 0
0.086666666 0.00499999989 0
0.0833333358 0.00499999989 0
0.0799999982 0.00499999989 0
0.0766666681 0.00499999989 0
0.0733333305 0.00499999989 0
0.0700000003 0.00499999989 0
0.0666666701 0.00499999989 0
0.0633333325 0.00499999989 0
0.0599999987 0.00499999989 0
0.0566666685 0.00499999989 0
0.0533333346 0.00499999989 0
0.0500000007 0.00499999989 0
0.0466666669 0.00499999989 0
0.043333333 0.00499999989 0
0.0399999991 0.00499999989 0
0.0366666652 0.00499999989 0
0.0333333351 0.00499999989 0
0.0299999993 0.00499999989 0
0.0266666673 0.00499999989 0
0.0233333334 0.00499999989 0
0.0199999996 0.00499999989 0
0.0166666675 0.00499999989 0
0.0133333337 0.00499999989 0
0.00999999978 0.00499999989 0
0.00666666683 0.00499999989 0
0.00333333341 0.00499999989 0
0.0 0.00499999989 0
0.100000001 0.00166666671 0
0.0966666639 0.00166666671 0
0.0933333337 0.00166666671 0
0.0900000036 0.00166666671 0
0.086666666 0.00166666671 0
0.0833333358 0.00166666671 0
0.0799999982 0.00166666671 0
0.0766666681 0.00166666671 0
0.0733333305 0.00166666671 0
0.0700000003 0.00166666671 0
0.0666666701 0.00166666671 0
0.0633333325 0.00166666671 0
0.0599999987 0.00166666671 0
0.0566666685 0.00166666671 0
0.0533333346 0.00166666671 0
0.0500000007 0.00166666671 0
0.0466666669 0.00166666671 0
0.043333333 0.00166666671 0
0.0399999991 0.00166666671 0
0.0366666652 0.00166666671 0
0.0333333351 0.00166666671 0
0.0299999993 0.00166666671 0
0.0266666673 0.00166666671 0
0.0233333334 0.00166666671 0
0.0199999996 0.00166666671 0
0.0166666675 0.00166666671 0
0.0133333337 0.00166666671 0
0.00999999978 0.00166666671 0
0.00666666683 0.00166666671 0
0.00333333341 0.00166666671 0
0.0 0.00166666671 0
0.100000001 -0.00166666671 0
0.0966666639 -0.00166666671 0
0.0933333337 -0.00166666671 0
0.0900000036 -0.00166666671 0
0.086666666 -0.00166666671 0
0.0833333358 -0.00166666671 0
0.0799999982 -0.00166666671 0
0.0766666681 -0.00166666671 0
0.0733333305 -0.00166666671 0
0.0700000003 -0.00166666671 0
0.0666666701 -0.00166666671 0
0.0633333325 -0.00166666671 0
0.0599999987 -0.00166666671 0
0.0566666685 -0.00166666671 0
0.0533333346 -0.00166666671 0
0.0500000007 -0.00166666671 0
0.0466666669 -0.00166666671 0
0.043333333 -0.00166666671 0
0.0399999991 -0.00166666671 0
0.0366666652 -0.00166666671 0
0.0333333351 -0.00166666671 0
0.0299999993 -0.00166666671 0
0.0266666673 -0.00166666671 0
0.0233333334 -0.00166666671 0
0.0199999996 -0.00166666671 0
0.0166666675 -0.00166666671 0
0.0133333337 -0.00166666671 0
0.00999999978 -0.00166666671 0
0.00666666683 -0.00166666671 0
0.00333333341 -0.00166666671 0
0.0 -0.00166666671 0
0.100000001 -0.00499999989 0
0.0966666639 -0.00499999989 0
0.0933333337 -0.00499999989 0
0.0900000036 -0.00499999989 0
0.086666666 -0.00499999989 0
0.0833333358 -0.00499999989 0
0.0799999982 -0.00499999989 0
0.0766666681 -0.00499999989 0
0.0733333305 -0.00499999989 0
0.0700000003 -0.00499999989 0
0.0666666701 -0.00499999989 0
0.0633333325 -0.00499999989 0
0.0599999987 -0.00499999989 0
0.0566666685 -0.00499999989 0
0.0533333346 -0.00499999989 0
0.0500000007 -0.00499999989 0
0.0466666669 -0.00499999989 0
0.043333333 -0.00499999989 0
0.0399999991 -0.00499999989 0
0.0366666652 -0.00499999989 0
0.0333333351 -0.00499999989 0
0.0299999993 -0.00499999989 0
0.0266666673 -0.00499999989 0
0.0233333334 -0.00499999989 0
0.0199999996 -0.00499999989 0
0.0166666675 -0.00499999989 0
0.0133333337 -0.00499999989 0
0.00999999978 -0.00499999989 0
0.00666666683 -0.00499999989 0
0.00333333341 -0.00499999989 0
0.0 -0.00499999989 0
0.100000001 -0.00833333377 0
0.0966666639 -0.00833333377 0
0.0933333337 -0.00833333377 0
0.0900000036 -0.00833333377 0
0.086666666 -0.00833333377 0
0.0833333358 -0.00833333377 0
0.0799999982 -0.00833333377 0
0.0766666681 -0.00833333377 0
0.0733333305 -0.00833333377 0
0.0700000003 -0.00833333377 0
0.0666666701 -0.00833333377 0
0.0633333325 -0.00833333377 0
0.0599999987 -0.00833333377 0
0.0566666685 -0.00833333377 0
0.0533333346 -0.00833333377 0
0.0500000007 -0.00833333377 0
0.0466666669 -0.00833333377 0
0.043333333 -0.00833333377 0
0.0399999991 -0.00833333377 0
0.0366666652 -0.00833333377 0
0.0333333351 -0.00833333377 0
0.0299999993 -0.00833333377 0
0.0266666673 -0.00833333377 0
0.0233333334 -0.00833333377 0
0.0199999996 -0.00833333377 0
0.0166666675 -0.00833333377 0
0.0133333337 -0.00833333377 0
0.00999999978 -0.00833333377 0
0.00666666683 -0.00833333377 0
0.00333333341 -0.00833333377 0
0.0 -0.00833333377 0
0.100000001 -0.0116666667 0
0.0966666639 -0.0116666667 0
0.0933333337 -0.0116666667 0
0.0900000036 -0.0116666667 0
0.086666666 -0.0116666667 0
0.0833333358 -0.0116666667 0
0.0799999982 -0.0116666667 0
0.0766666681 -0.0116666667 0
0.0733333305 -0.0116666667 0
0.0700000003 -0.0116666667 0
0.0666666701 -0.0116666667 0
0.0633333325 -0.0116666667 0
0.0599999987 -0.0116666667 0
0.0566666685 -0.0116666667 0
0.0533333346 -0.0116666667 0
0.0500000007 -0.0116666667 0
0.0466666669 -0.0116666667 0
0.043333333 -0.0116666667 0
0.0399999991 -0.0116666667 0
0.0366666652 -0.0116666667 0
0.0333333351 -0.0116666667 0
0.0299999993 -0.0116666667 0
0.0266666673 -0.0116666667 0
0.0233333334 -0.0116666667 0
0.0199999996 -0.0116666667 0
0.0166666675 -0.0116666667 0
0.0133333337 -0.0116666667 0
0.00999999978 -0.0116666667 0
0.00666666683 -0.0116666667 0
0.00333333341 -0.0116666667 0
0.0 -0.0116666667 0
0.100000001 -0.0149999997 0
0.0966666639 -0.0149999997 0
0.0933333337 -0.0149999997 0
0.0900000036 -0.0149999997 0
0.086666666 -0.0149999997 0
0.0833333358 -0.0149999997 0
0.0799999982 -0.0149999997 0
0.0766666681 -0.0149999997 0
0.0733333305 -0.0149999997 0
0.0700000003 -0.0149999997 0
0.0666666701 -0.0149999997 0
0.0633333325 -0.0149999997 0
0.0599999987 -0.0149999997 0
0.0566666685 -0.0149999997 0
0.0533333346 -0.0149999997 0
0.0500000007 -0.0149999997 0
0.0466666669 -0.0149999997 0
0.043333333 -0.0149999997 0
0.0399999991 -0.0149999997 0
0.0366666652 -0.0149999997 0
0.0333333351 -0.0149999997 0
0.0299999993 -0.0149999997 0
0.0266666673 -0.0149999997 0
0.0233333334 -0.0149999997 0
0.0199999996 -0.0149999997 0
0.0166666675 -0.0149999997 0
0.0133333337 -0.0149999997 0
0.00999999978 -0.0149999997 0
0.00666666683 -0.0149999997 0
0.00333333341 -0.0149999997 0
0.0 -0.0149999997 0
0.100000001 -0.0183333326 0
0.0966666639 -0.0183333326 0
0.0933333337 -0.0183333326 0
0.0900000036 -0.0183333326 0
0.086666666 -0.0183333326 0
0.0833333358 -0.0183333326 0
0.0799999982 -0.0183333326 0
0.0766666681 -0.0183333326 0
0.0733333305 -0.0183333326 0
0.0700000003 -0.0183333326 0
0.0666666701 -0.0183333326 0
0.0633333325 -0.0183333326 0
0.0599999987 -0.0183333326 0
0.0566666685 -0.0183333326 0
0.0533333346 -0.0183333326 0
0.0500000007 -0.0183333326 0
0.0466666669 -0.0183333326 0
0.043333333 -0.0183333326 0
0.0399999991 -0.0183333326 0
0.0366666652 -0.0183333326 0
0.0333333351 -0.0183333326 0
0.0299999993 -0.0183333326 0
0.0266666673 -0.0183333326 0
0.0233333334 -0.0183333326 0
0.0199999996 -0.0183333326 0
0.0166666675 -0.0183333326 0
0.0133333337 -0.0183333326 0
0.00999999978 -0.0183333326 0
0.00666666683 -0.0183333326 0
0.00333333341 -0.0183333326 0
0.0 -0.0183333326 0
0.100000001 -0.0216666665 0
0.0966666639 -0.0216666665 0
0.0933333337 -0.0216666665 0
0.0900000036 -0.0216666665 0
0.086666666 -0.0216666665 0
0.0833333358 -0.0216666665 0
0.0799999982 -0.0216666665 0
0.0766666681 -0.0216666665 0
0.0733333305 -0.0216666665 0
0.0700000003 -0.0216666665 0
0.0666666701 -0.0216666665 0
0.0633333325 -0.0216666665 0
0.0599999987 -0.0216666665 0
0.0566666685 -0.0216666665 0
0.0533333346 -0.0216666665 0
0.0500000007 -0.0216666665 0
0.0466666669 -0.0216666665 0
0.043333333 -0.0216666665 0
0.0399999991 -0.0216666665 0
0.0366666652 -0.0216666665 0
0.0333333351 -0.0216666665 0
0.0299999993 -0.0216666665 0
0.0266666673 -0.0216666665 0
0.0233333334 -0.0216666665 0
0.0199999996 -0.0216666665 0
0.0166666675 -0.0216666665 0
0.0133333337 -0.0216666665 0
0.00999999978 -0.0216666665 0
0.00666666683 -0.0216666665 0
0.00333333341 -0.0216666665 0
0.0 -0.0216666665 0
0.100000001 -0.0250000004 0
0.0966666639 -0.0250000004 0
0.0933333337 -0.0250000004 0
0.0900000036 -0.0250000004 0
0.086666666 -0.0250000004 0
0.0833333358 -0.0250000004 0
0.0799999982 -0.0250000004 0
0.0766666681 -0.0250000004 0
0.0733333305 -0.0250000004 0
0.0700000003 -0.0250000004 0
0.0666666701 -0.0250000004 0
0.0633333325 -0.0250000004 0
0.0599999987 -0.0250000004 0
0.0566666685 -0.0250000004 0
0.0533333346 -0.0250000004 0
0.0500000007 -0.0250000004 0
0.0466666669 -0.0250000004 0
0.043333333 -0.0250000004 0
0.0399999991 -0.0250000004 0
0.0366666652 -0.0250000004 0
0.0333333351 -0.0250000004 0
0.0299999993 -0.0250000004 0
0.0266666673 -0.0250000004 0
0.0233333334 -0.0250000004 0
0.0199999996 -0.0250000004 0
0.0166666675 -0.0250000004 0
0.0133333337 -0.0250000004 0
0.00999999978 -0.0250000004 0
0.00666666683 -0.0250000004 0
0.00333333341 -0.0250000004 0
0.0 -0.0250000004 0
0.100000001 -0.0283333343 0
0.0966666639 -0.0283333343 0
0.0933333337 -0.0283333343 0
0.0900000036 -0.0283333343 0
0.086666666 -0.0283333343 0
0.0833333358 -0.0283333343 0
0.0799999982 -0.0283333343 0
0.0766666681 -0.0283333343 0
0.0733333305 -0.0283333343 0
0.0700000003 -0.0283333343 0
0.0666666701 -0.0283333343 0
0.0633333325 -0.0283333343 0
0.0599999987 -0.0283333343 0
0.0566666685 -0.0283333343 0
0.0533333346 -0.0283333343 0
0.0500000007 -0.0283333343 0
0.0466666669 -0.0283333343 0
0.043333333 -0.0283333343 0
0.0399999991 -0.0283333343 0
0.0366666652 -0.0283333343 0
0.0333333351 -0.0283333343 0
0.0299999993 -0.0283333343 0
0.0266666673 -0.0283333343 0
0.0233333334 -0.0283333343 0
0.0199999996 -0.0283333343 0
0.0166666675 -0.0283333343 0
0.0133333337 -0.0283333343 0
0.00999999978 -0.0283333343 0
0.00666666683 -0.0283333343 0
0.00333333341 -0.0283333343 0
0.0 -0.0283333343 0
[...]
POINT_DATA 961
SCALARS Temp float 1
LOOKUP_TABLE default
299.2374099453064
267.48865126614953
244.04549746117354
227.9147812285925
217.58638961327932
211.4307591875632
208.0102604785828
206.23347947613195
205.36777961635138
204.9706562115354
204.79845537739465
204.7275929874852
204.6998205495168
204.6894460922939
204.6858377627625
204.6849734275885
204.68583776251003
204.6894460914901
204.69982056649232
204.72759303417962
204.79845524193118
204.97065632231033
205.36778019631078
206.2334793290176
208.01026289398646
211.43075610298516
217.58639277714178
227.91477202637148
244.04550020737875
267.488681536418
299.2374096829935
267.4886837106671
234.6204378267283
210.349752489534
193.64878840781716
182.9546015913791
176.5804941256976
173.03830494822844
171.19814978518906
170.3014895189915
169.89012476784308
169.71173163718987
169.63831412754874
169.60953762400126
169.59878714036873
169.59504772744543
169.59415194518786
169.59504772718387
169.59878713953566
169.60953764159123
169.63831417592863
169.71173149684853
169.89012488259576
170.30149011971497
171.19814963281053
173.0383074496604
176.58049093148102
182.95460486739884
193.64877887995172
210.34975533273715
234.6204691649199
267.4886834391478
244.04550185239285
210.34972259950712
185.46551035119484
168.34008608345485
157.37228184759633
150.8338156321911
147.1994967862304
145.31103496501623
144.39060772040102
143.9682315022938
143.78501587697866
143.70959430022845
143.6800248175021
143.6689753969502
143.6651311608608
143.6642101335568
143.6651311605918
143.66897539609377
143.68002483557862
143.70959434993355
143.78501573282486
143.96823162013277
144.39060833711042
145.31103480859022
147.19949935298672
150.8338123551724
157.3722852077199
168.34007631253738
185.46551326642845
210.34975472825036
244.04550157415466
227.91477233419906
193.64874417746938
168.340071898151
150.9194221583393
139.760051652845
133.10562983648222
129.4057587948131
127.48261192404098
126.54495752463633
126.11452278741478
125.92774393670297
125.85082758274794
125.82066120337129
125.80938479799597
125.80546035195096
125.80451990875943
125.80546035167613
125.80938479712178
125.82066122181503
125.85082763344495
125.92774378971858
126.11452290752271
126.54495815297797
127.48261176467535
129.40576140823427
133.105626500741
139.7600550720491
150.91941221775488
168.34007486332757
193.64877685203282
227.9147720514137
217.5863931875662
182.95456989518172
157.37228085090487
139.76006523073295
128.47537578815505
121.74437602417635
118.00075534352086
116.05419662597315
115.10477653799673
114.66877173876357
114.47950033874125
114.4015259741559
114.3709322513927
114.35949156242684
114.35550850196415
114.35455378041883
114.35550850168524
114.35949156153963
114.37093227010077
114.40152602555779
114.47950018976482
114.66877186044898
115.10477717432147
116.05419646459484
118.00075798824089
121.74437264940286
128.47537924616887
139.7600551795602
157.3722838483644
182.9546029207113
217.58639290193216
211.4307576620063
176.58045692356725
150.83380918772843
133.10563796691727
121.74437042154528
114.96605594047142
111.19506810866434
109.23366834512579
108.27668542024692
107.83704903550193
107.64612923319903
107.5674452722253
107.53656098999787
107.52500713871339
107.52098323598115
107.52001849007758
107.52098323569932
107.5250071378173
107.53656100888647
107.5674453241025
107.64612908289557
107.83704915822287
108.27668606173273
109.23366818244965
111.19507077307772
114.96605254139817
121.74437390338926
133.10562784845638
150.8338122046434
176.58049015930524
211.4307573747207
208.0102632069965
173.03827202571426
147.199494844505
129.40577156425428
118.00075438212863
111.19507280670491
107.40803493128293
105.43779986397676
104.47624301689788
104.03437443161737
103.84242475327294
103.76329022878514
103.73221851732441
103.72059056140432
103.716539554302
103.71556809774577
103.71653955401831
103.7205905605022
103.73221853633028
103.76329028096605
103.84242460213358
104.03437455497992
104.47624366152576
105.43779970051328
107.40803760732227
111.19506939345699
118.00075787766102
129.40576140753524
147.19949787236592
173.03830537890298
208.01026291882314
206.233479967205
171.19811447997463
145.3110306366917
127.48262229264627
116.05419320682678
109.23367057944165
105.43779737841867
103.46261852954058
102.49845772355205
102.05529541646712
101.86273793674108
101.78333265630988
101.75214629917699
101.74047223979217
101.73640411490103
101.7354283785821
101.7364041146161
101.7404722388863
101.75214631825519
101.7833327086745
101.86273778510358
102.05529554020472
102.49845836998199
103.46261836562712
105.43780006090421
109.2336671584361
116.05419670972718
127.48261211555986
145.3110336703152
171.1981478945351
206.23347967858834
205.3677806479042
170.3014547414491
144.39060396243923
126.54496848899048
115.1047737081526
108.27668825503001
104.47624112908203
102.49845832615077
101.53290046553364
101.08903060705397
100.89613413321268
100.81657484118281
100.7853219923459
100.77362069031444
100.76954228187832
100.76856394673064
100.76954228159265
100.77362068940636
100.78532201146616
100.81657489365253
100.89613398129464
101.08903073099867
101.532901112938
102.49845816199505
104.47624381493016
108.27668483003335
115.1047772147783
126.54495830172417
144.39060699891007
170.30148818609686
205.36778035908068
204.97065653766018
169.8900892447639
143.96822699213004
126.11453299219225
114.66876813301783
107.83705109110169
104.03437175798634
102.05529523258767
101.0890298188996
100.64479431931812
100.45171899337929
100.37207672380254
100.34078729685059
100.32907070372043
100.32498641934362
100.32400658199738
100.32498641905744
100.32907070281112
100.34078731599422
100.37207677632932
100.45171884131132
100.64479444337101
101.08903046680159
102.05529506830878
104.03437444548864
107.83704766416963
114.66877164141827
126.11452280013364
143.9682300299262
169.89012270330113
204.97065624874648
204.7984555640642
169.71169596315804
143.78501121751418
125.92775399228125
114.47949657880474
107.6461311346126
103.84242192330534
101.86273759673067
100.8961331884042
100.45171883686669
100.25855412442117
100.1788694656553
100.14756093853264
100.13583618907737
100.13174871070811
100.1307680467982
100.13174871042183
100.1358361881674
100.14756095768871
100.1788695182116
100.25855397227745
100.45171896097298
100.89613383654675
101.86273743239256
103.84242461157709
107.64612770679341
114.4795000880043
125.92774379809012
143.78501425589346
169.71172942775618
204.7984552751136
204.7275933128619
169.63827859453946
143.70958978800047
125.8508377897356
114.40152236642925
107.56744732780322
103.76328755327765
101.78333247159016
100.81657405184681
100.37207672305304
100.1788696215343
100.09916440343889
100.06784640007582
100.05611751354067
100.05202838298378
100.05104728607762
100.05202838269734
100.05611751263034
100.06784641923804
100.09916445600952
100.17886946935435
100.37207684718449
100.81657470009955
101.78333230722508
103.76329024188868
107.56744389959849
114.40152587597011
125.85082759464427
143.70959282662304
169.63831206164733
204.72759302389667
204.69982085410848
169.60950206840081
143.6800202830034
125.82067138815746
114.37092862065234
107.53656302259492
103.73221581846772
101.75214609116135
100.7853211796211
100.340787272747
100.14756107106201
100.06784637670273
100.03652390398605
100.0247930218471
100.0207030782441
100.01972176551735
100.02070307795745
100.02479302093643
100.03652392315107
100.06784642928004
100.14756091886545
100.34078739688951
100.7853218279219
101.75214592678456
103.73221850722098
107.53655959423074
114.37093213033182
125.82066119270452
143.68002332172264
169.60953553649824
204.69982056513794
204.68944638215373
169.59875156910596
143.6689708467066
125.80939496691035
114.35948791539069
107.52500915494988
103.72058784598981
101.74047201520727
100.77361986096292
100.32907066299342
100.13583630497932
100.056117473527
100.02479300520493
100.01306121212944
100.00897089006943
100.00798947562554
100.00897088978279
100.01306121121867
100.0247930243713
100.05611752610726
100.13583615277543
100.32907078714051
100.77362050928349
101.74047185082573
103.72059053479964
107.52500572652299
114.35949142512372
125.80938477131919
143.66897388546238
169.59878503757528
204.68944609318132
204.68583805448614
169.59501215797528
143.6651266125825
125.8054705229399
114.35550485696344
107.52098525430704
103.716536840956
101.73640389241226
100.76954145462004
100.32498638072181
100.1317488287197
100.05202834507736
100.02070306371004
100.00897089217833
100.00488041015643
100.00389895225028
100.00488040986983
100.0089708912675
100.02070308287699
100.05202839765886
100.13174867651303
100.3249865048708
100.76954210294811
101.73640372802885
103.71653952978673
107.52098182585756
114.35550836671588
125.80546032729974
143.66512965135138
169.59504562657457
204.68583776551299
204.6849737205309
169.59411637694745
143.66420558657262
125.8045300810864
114.35455013675934
107.52002050976708
103.71556538576424
101.73542815746853
100.76856312084918
100.32400654475681
100.13076816619271
100.05104724955402
100.01972175236662
100.00798947911788
100.00389895363392
100.00291748383832
100.0038989533473
100.00798947820718
100.01972177153371
100.05104730213573
100.13076801398537
100.32400666890624
100.76856376917914
101.73542799308461
103.71556807460014
107.52001708131193
114.35455364651656
125.8045198854343
143.6642086253446
169.59414984557807
204.68497343155778
204.68583805515374
169.5950121586673
143.66512661329398
125.8054705236663
114.35550485770067
107.52098525505197
103.71653684170599
101.73640389316535
100.76954145537506
100.32498638147791
100.13174882947636
100.05202834583434
100.02070306446724
100.0089708929355
100.00488041091366
100.00389895300752
100.00488041062705
100.00897089202479
100.02070308363413
100.05202839841583
100.13174867726973
100.32498650562687
100.76954210370313
101.73640372878187
103.71653953053662
107.52098182660242
114.35550836745311
125.80546032802614
143.66512965206286
169.5950456272667
204.68583776618087
204.68944638404773
169.5987515710687
143.66897084872414
125.80939496896951
114.3594879174802
107.52500915706035
103.72058784811398
101.74047201734011
100.77361986310079
100.32907066513417
100.13583630712156
100.05611747566999
100.02479300734834
100.01306121427305
100.0089708922131
100.00798947776919
100.00897089192661
100.01306121336232
100.02479302651471
100.05611752825033
100.13583615491768
100.32907078928127
100.77362051142129
101.74047185295846
103.7205905369238
107.52500572863347
114.35949142721326
125.80938477337841
143.66897388748004
169.59878503953814
204.6894460950754
204.69982085922553
169.6095020737031
143.6800202884523
125.82067139371694
114.37092862629129
107.53656302828824
103.73221582419622
101.7521460969114
100.78532118538384
100.34078727851667
100.14756107683539
100.06784638247785
100.03652390976208
100.02479302762337
100.02070308402061
100.01972177129387
100.02070308373408
100.02479302671286
100.03652392892708
100.06784643505516
100.14756092463871
100.34078740265905
100.78532183368455
101.75214593253457
103.73221851294936
107.53655959992405
114.3709321359708
125.82066119826409
143.68002332717163
169.6095355418006
204.699820570255
204.72759332744766
169.6382786096516
143.7095898035265
125.85083780557115
114.40152238248476
107.56744734400685
103.76328756957594
101.7833324879455
100.81657406823489
100.37207673945898
100.1788696379493
100.09916441985831
100.06784641649729
100.05611752996312
100.05202839940647
100.05104730250044
100.05202839911999
100.05611752905266
100.06784643565942
100.09916447242884
100.17886948576916
100.37207686359027
100.81657471648755
101.78333232358037
103.76329025818673
107.56744391580206
114.4015258920255
125.85082761047983
143.7095928421491
169.63831207675955
204.7275930384825
204.7984556638868
169.71169606657423
143.78501132373697
125.9277541005855
114.47949668857206
107.64613124535296
103.8424220346577
101.86273770844684
100.89613330032509
100.45171894889634
100.25855423650579
100.17886957776614
100.14756105065557
100.13583630120534
100.1317488228381
100.1307681589286
100.13174882255171
100.13583630029524
100.14756106981137
100.17886963032224
100.258554084362
100.45171907300256
100.89613394846761
101.86273754410877
103.8424247229293
107.64612781753375
114.47950019777144
125.9277439063944
143.78501436211613
169.71172953117235
204.79845537493634
204.9706564749066
169.89008917975534
143.9682269253688
126.11453292413937
114.66876806406415
107.83705102155444
104.03437168806995
102.05529516245436
101.08902974864604
100.64479424900138
100.45171892303108
100.37207665343949
100.34078722648088
100.32907063334795
100.32498634896986
100.32400651162342
100.32498634868364
100.32907063243847
100.3407872456245
100.37207670596615
100.45171877096297
100.64479437305417
101.08903039654797
102.0552949981755
104.03437437557226
107.83704759462243
114.66877157246458
126.11452273208062
143.968229963165
169.89012263829267
204.97065618599305
205.36778115016406
170.30145526169287
144.39060449653206
126.54496903316395
115.10477425924753
108.27668881060173
104.4762416873809
102.49845888601472
101.53290102624459
101.08903116819765
100.89613469456569
100.81657540263177
100.78532255383668
100.77362125182255
100.76954284339294
100.7685645082469
100.76954284310725
100.77362125091439
100.78532257295689
100.81657545510137
100.89613454264742
101.08903129214225
101.53290167364888
102.49845872185901
104.47624437322922
108.27668538560522
115.1047777658732
126.54495884589784
144.39060753300305
170.30148870634076
205.36778086134072
206.23347965801986
171.1981141597393
145.3110303079885
127.48262195781965
116.05419286783042
109.23367023777381
105.4377970351416
103.46261818535135
102.4984573788758
102.05529507154534
101.8627375917022
101.78333231121808
101.75214595406253
101.74047189466839
101.73640376977374
101.735428033454
101.73640376948886
101.74047189376259
101.75214597314057
101.78333236358259
101.86273744006472
102.05529519528285
102.49845802530562
103.46261802143798
105.43779971762723
109.23366681676835
116.0541963707307
127.48261178073342
145.3110333416121
171.19814757429992
206.23347936940323
208.01026604688445
173.0382749667549
147.1994978623644
129.40577463700026
118.0007574916967
111.19507593944817
107.40803807771216
105.43780301799724
104.47624617487988
104.03437759154899
103.84242791411154
103.76329339002407
103.73222167873105
103.72059372287775
103.71654271580012
103.71557125925007
103.7165427155164
103.72059372197576
103.73222169773695
103.76329344220483
103.84242776297198
104.03437771491134
104.47624681950778
105.43780285453376
107.40804075375156
111.19507252620028
118.00076098722916
129.40576448028136
147.1995008902254
173.03830831994358
208.01026575871145
211.43075897962981
176.5804582879783
150.8338105873824
133.10563939147804
121.74437186259043
114.96605739172831
111.19506956584534
109.23366980553004
108.27668688229978
107.83705049834957
107.64613069640883
107.56744673559152
107.5365624534285
107.5250086021692
107.52098469944602
107.52001995354468
107.52098469916422
107.52500860127309
107.53656247231712
107.56744678746867
107.64613054610528
107.83705062107033
108.27668752378545
109.23366964285395
111.19507223025866
114.96605399265512
121.74437534443467
133.10562927301737
150.83381360429752
176.5804915237164
211.4307586923444
217.5863888618048
182.9545654160255
157.372276256624
139.76006055548842
128.47537105965122
121.74437126291642
118.00075056341176
116.0541918356989
115.10477174257235
114.66876694088104
114.47949553974959
114.40152117468956
114.37092745173321
114.3594867626925
114.35550370220291
114.35454898065109
114.35550370192414
114.35948676180527
114.37092747044123
114.40152122609148
114.47949539077298
114.66876706256627
115.10477237889697
116.05419167432026
118.00075320813171
121.74436788814296
128.47537451766522
139.76005050431596
157.37227925408365
182.95459844155536
217.58638857617098
227.91477967757433
193.64875178067402
168.3400796952141
150.9194300906646
139.76005967328376
133.10563791050023
129.40576689927457
127.48262004469845
126.54496565338371
126.11453091996823
125.92775207094932
125.85083571770826
125.8206693386182
125.80939293335246
125.80546848734629
125.80452804416436
125.80546848707166
125.80939293247816
125.82066935706186
125.85083576840509
125.92775192396468
126.11453104007602
126.54496628172521
127.48261988533267
129.40576951269563
133.105634574759
139.76006309248788
150.91942015008033
168.34008266039058
193.6487844552372
227.9147793947891
244.04549483247794
210.34971533159103
185.46550289901163
168.3400785034175
157.3722741848469
150.83380791955386
147.19948904550304
145.31102720949025
144.39059995755866
143.96822373604508
143.785008109231
143.7095865318549
143.68001704887976
143.66896762823353
143.66512339211104
143.66420236479914
143.66512339184197
143.66896762737713
143.68001706695605
143.7095865815598
143.785007965077
143.96822385388384
144.39060057426778
145.31102705306398
147.1994916122591
150.833804642535
157.37227754497061
168.34006873249993
185.46550581424515
210.34974746033447
244.04549455423975
267.4887090458554
234.62046405572295
210.34977938016505
193.64881575524186
182.9546292325095
176.58052194272847
173.03833286353301
171.19817775184032
170.3015175108128
169.89015277128246
169.7117596456986
169.63834213815633
169.6095656354366
169.5988151521149
169.5950757393003
169.59417995706875
169.5950757390386
169.5988151512817
169.6095656530264
169.63834218653614
169.71175950535718
169.89015288603488
170.30151811153598
171.1981775994613
173.03833536496472
176.5805187485118
182.95463250852922
193.64880622737658
210.3497822233679
234.62049539391361
267.48870877433615
299.2374097947892
267.4886511103568
244.04549730154446
227.9147810663791
217.5863894494559
211.43075902281205
208.01026031333595
206.23347931063887
205.3677794507443
204.97065604587885
204.7984552117177
204.7275928218005
204.6998203838293
204.68944592660543
204.68583759707332
204.68497326189953
204.6858375968211
204.68944592580144
204.69982040080467
204.7275928684949
204.79845507625419
204.97065615665358
205.36778003070336
206.23347916352424
208.0102627287395
211.43075593823377
217.58639261331857
227.9147718641582
244.0455000477496
267.48868138062517
299.2374095324764
