# vtk DataFile Version 2.0
Unstructured Grid Example
ASCII
DATASET UNSTRUCTURED_GRID

POINTS 961 float
0.100000001 0.00499999989 0
0.0966666639 0.00499999989 0
0.0933333337 0.00499999989 0
0.0900000036 0.00499999989 0
0.086666666 0.00499999989 0
0.0833333358 0.00499999989 0
0.0799999982 0.00499999989 0
0.0766666681 0.00499999989 0
0.0733333305 0.00499999989 0
0.0700000003 0.00499999989 0
0.0666666701 0.00499999989 0
0.0633333325 0.00499999989 0
0.0599999987 0.00499999989 0
0.0566666685 0.00499999989 0
0.0533333346 0.00499999989 0
0.0500000007 0.00499999989 0
0.0466666669 0.00499999989 0
0.043333333 0.00499999989 0
0.0399999991 0.00499999989 0
0.0366666652 0.00499999989 0
0.0333333351 0.00499999989 0
0.0299999993 0.00499999989 0
0.0266666673 0.00499999989 0
0.0233333334 0.00499999989 0
0.0199999996 0.00499999989 0
0.0166666675 0.00499999989 0
0.0133333337 0.00499999989 0
0.00999999978 0.00499999989 0
0.00666666683 0.00499999989 0
0.00333333341 0.00499999989 0
0.0 0.00499999989 0
0.100000001 0.00166666671 0
0.0966666639 0.00166666671 0
0.0933333337 0.00166666671 0
0.0900000036 0.00166666671 0
0.086666666 0.00166666671 0
0.0833333358 0.00166666671 0
0.0799999982 0.00166666671 0
0.0766666681 0.00166666671 0
0.0733333305 0.00166666671 0
0.0700000003 0.00166666671 0
0.0666666701 0.00166666671 0
0.0633333325 0.00166666671 0
0.0599999987 0.00166666671 0
0.0566666685 0.00166666671 0
0.0533333346 0.00166666671 0
0.0500000007 0.00166666671 0
0.0466666669 0.00166666671 0
0.043333333 0.00166666671 0
0.0399999991 0.00166666671 0
0.0366666652 0.00166666671 0
0.0333333351 0.00166666671 0
0.0299999993 0.00166666671 0
0.0266666673 0.00166666671 0
0.0233333334 0.00166666671 0
0.0199999996 0.00166666671 0
0.0166666675 0.00166666671 0
0.0133333337 0.00166666671 0
0.00999999978 0.00166666671 0
0.00666666683 0.00166666671 0
0.00333333341 0.00166666671 0
0.0 0.00166666671 0
0.100000001 -0.00166666671 0
0.0966666639 -0.00166666671 0
0.0933333337 -0.00166666671 0
0.0900000036 -0.00166666671 0
0.086666666 -0.00166666671 0
0.0833333358 -0.00166666671 0
0.0799999982 -0.00166666671 0
0.0766666681 -0.00166666671 0
0.0733333305 -0.00166666671 0
0.0700000003 -0.00166666671 0
0.0666666701 -0.00166666671 0
0.0633333325 -0.00166666671 0
0.0599999987 -0.00166666671 0
0.0566666685 -0.00166666671 0
0.0533333346 -0.00166666671 0
0.0500000007 -0.00166666671 0
0.0466666669 -0.00166666671 0
0.043333333 -0.00166666671 0
0.0399999991 -0.00166666671 0
0.0366666652 -0.00166666671 0
0.0333333351 -0.00166666671 0
0.0299999993 -0.00166666671 0
0.0266666673 -0.00166666671 0
0.0233333334 -0.00166666671 0
0.0199999996 -0.00166666671 0
0.0166666675 -0.00166666671 0
0.0133333337 -0.00166666671 0
0.00999999978 -0.00166666671 0
0.00666666683 -0.00166666671 0
0.00333333341 -0.00166666671 0
0.0 -0.00166666671 0
0.100000001 -0.00499999989 0
0.0966666639 -0.00499999989 0
0.0933333337 -0.00499999989 0
0.0900000036 -0.00499999989 0
0.086666666 -0.00499999989 0
0.0833333358 -0.00499999989 0
0.0799999982 -0.00499999989 0
0.0766666681 -0.00499999989 0
0.0733333305 -0.00499999989 0
0.0700000003 -0.00499999989 0
0.0666666701 -0.00499999989 0
0.0633333325 -0.00499999989 0
0.0599999987 -0.00499999989 0
0.0566666685 -0.00499999989 0
0.0533333346 -0.00499999989 0
0.0500000007 -0.00499999989 0
0.0466666669 -0.00499999989 0
0.043333333 -0.00499999989 0
0.0399999991 -0.00499999989 0
0.0366666652 -0.00499999989 0
0.0333333351 -0.00499999989 0
0.0299999993 -0.00499999989 0
0.0266666673 -0.00499999989 0
0.0233333334 -0.00499999989 0
0.0199999996 -0.00499999989 0
0.0166666675 -0.00499999989 0
0.0133333337 -0.00499999989 0
0.00999999978 -0.00499999989 0
0.00666666683 -0.00499999989 0
0.00333333341 -0.00499999989 0
0.0 -0.00499999989 0
0.100000001 -0.00833333377 0
0.0966666639 -0.00833333377 0
0.0933333337 -0.00833333377 0
0.0900000036 -0.00833333377 0
0.086666666 -0.00833333377 0
0.0833333358 -0.00833333377 0
0.0799999982 -0.00833333377 0
0.0766666681 -0.00833333377 0
0.0733333305 -0.00833333377 0
0.0700000003 -0.00833333377 0
0.0666666701 -0.00833333377 0
0.0633333325 -0.00833333377 0
0.0599999987 -0.00833333377 0
0.0566666685 -0.00833333377 0
0.0533333346 -0.00833333377 0
0.0500000007 -0.00833333377 0
0.0466666669 -0.00833333377 0
0.043333333 -0.00833333377 0
0.0399999991 -0.00833333377 0
0.0366666652 -0.00833333377 0
0.0333333351 -0.00833333377 0
0.0299999993 -0.00833333377 0
0.0266666673 -0.00833333377 0
0.0233333334 -0.00833333377 0
0.0199999996 -0.00833333377 0
0.0166666675 -0.00833333377 0
0.0133333337 -0.00833333377 0
0.00999999978 -0.00833333377 0
0.00666666683 -0.00833333377 0
0.00333333341 -0.00833333377 0
0.0 -0.00833333377 0
0.100000001 -0.0116666667 0
0.0966666639 -0.0116666667 0
0.0933333337 -0.0116666667 0
0.0900000036 -0.0116666667 0
0.086666666 -0.0116666667 0
0.0833333358 -0.0116666667 0
0.0799999982 -0.0116666667 0
0.0766666681 -0.0116666667 0
0.0733333305 -0.0116666667 0
0.0700000003 -0.0116666667 0
0.0666666701 -0.0116666667 0
0.0633333325 -0.0116666667 0
0.0599999987 -0.0116666667 0
0.0566666685 -0.0116666667 0
0.0533333346 -0.0116666667 0
0.0500000007 -0.0116666667 0
0.0466666669 -0.0116666667 0
0.043333333 -0.0116666667 0
0.0399999991 -0.0116666667 0
0.0366666652 -0.0116666667 0
0.0333333351 -0.0116666667 0
0.0299999993 -0.0116666667 0
0.0266666673 -0.0116666667 0
0.0233333334 -0.0116666667 0
0.0199999996 -0.0116666667 0
0.0166666675 -0.0116666667 0
0.0133333337 -0.0116666667 0
0.00999999978 -0.0116666667 0
0.00666666683 -0.0116666667 0
0.00333333341 -0.0116666667 0
0.0 -0.0116666667 0
0.100000001 -0.0149999997 0
0.0966666639 -0.0149999997 0
0.0933333337 -0.0149999997 0
0.0900000036 -0.0149999997 0
0.086666666 -0.0149999997 0
0.0833333358 -0.0149999997 0
0.0799999982 -0.0149999997 0
0.0766666681 -0.0149999997 0
0.0733333305 -0.0149999997 0
0.0700000003 -0.0149999997 0
0.0666666701 -0.0149999997 0
0.0633333325 -0.0149999997 0
0.0599999987 -0.0149999997 0
0.0566666685 -0.0149999997 0
0.0533333346 -0.0149999997 0
0.0500000007 -0.0149999997 0
0.0466666669 -0.0149999997 0
0.043333333 -0.0149999997 0
0.0399999991 -0.0149999997 0
0.0366666652 -0.0149999997 0
0.0333333351 -0.0149999997 0
0.0299999993 -0.0149999997 0
0.0266666673 -0.0149999997 0
0.0233333334 -0.0149999997 0
0.0199999996 -0.0149999997 0
0.0166666675 -0.0149999997 0
0.0133333337 -0.0149999997 0
0.00999999978 -0.0149999997 0
0.00666666683 -0.0149999997 0
0.00333333341 -0.0149999997 0
0.0 -0.0149999997 0
0.100000001 -0.0183333326 0
0.0966666639 -0.0183333326 0
0.0933333337 -0.0183333326 0
0.0900000036 -0.0183333326 0
0.086666666 -0.0183333326 0
0.0833333358 -0.0183333326 0
0.0799999982 -0.0183333326 0
0.0766666681 -0.0183333326 0
0.0733333305 -0.0183333326 0
0.0700000003 -0.0183333326 0
0.0666666701 -0.0183333326 0
0.0633333325 -0.0183333326 0
0.0599999987 -0.0183333326 0
0.0566666685 -0.0183333326 0
0.0533333346 -0.0183333326 0
0.0500000007 -0.0183333326 0
0.0466666669 -0.0183333326 0
0.043333333 -0.0183333326 0
0.0399999991 -0.0183333326 0
0.0366666652 -0.0183333326 0
0.0333333351 -0.0183333326 0
0.0299999993 -0.0183333326 0
0.0266666673 -0.0183333326 0
0.0233333334 -0.0183333326 0
0.0199999996 -0.0183333326 0
0.0166666675 -0.0183333326 0
0.0133333337 -0.0183333326 0
0.00999999978 -0.0183333326 0
0.00666666683 -0.0183333326 0
0.00333333341 -0.0183333326 0
0.0 -0.0183333326 0
0.100000001 -0.0216666665 0
0.0966666639 -0.0216666665 0
0.0933333337 -0.0216666665 0
0.0900000036 -0.0216666665 0
0.086666666 -0.0216666665 0
0.0833333358 -0.0216666665 0
0.0799999982 -0.0216666665 0
0.0766666681 -0.0216666665 0
0.0733333305 -0.0216666665 0
0.0700000003 -0.0216666665 0
0.0666666701 -0.0216666665 0
0.0633333325 -0.0216666665 0
0.0599999987 -0.0216666665 0
0.0566666685 -0.0216666665 0
0.0533333346 -0.0216666665 0
0.0500000007 -0.0216666665 0
0.0466666669 -0.0216666665 0
0.043333333 -0.0216666665 0
0.0399999991 -0.0216666665 0
0.0366666652 -0.0216666665 0
0.0333333351 -0.0216666665 0
0.0299999993 -0.0216666665 0
0.0266666673 -0.0216666665 0
0.0233333334 -0.0216666665 0
0.0199999996 -0.0216666665 0
0.0166666675 -0.0216666665 0
0.0133333337 -0.0216666665 0
0.00999999978 -0.0216666665 0
0.00666666683 -0.0216666665 0
0.00333333341 -0.0216666665 0
0.0 -0.0216666665 0
0.100000001 -0.0250000004 0
0.0966666639 -0.0250000004 0
0.0933333337 -0.0250000004 0
0.0900000036 -0.0250000004 0
0.086666666 -0.0250000004 0
0.0833333358 -0.0250000004 0
0.0799999982 -0.0250000004 0
0.0766666681 -0.0250000004 0
0.0733333305 -0.0250000004 0
0.0700000003 -0.0250000004 0
0.0666666701 -0.0250000004 0
0.0633333325 -0.0250000004 0
0.0599999987 -0.0250000004 0
0.0566666685 -0.0250000004 0
0.0533333346 -0.0250000004 0
0.0500000007 -0.0250000004 0
0.0466666669 -0.0250000004 0
0.043333333 -0.0250000004 0
0.0399999991 -0.0250000004 0
0.0366666652 -0.0250000004 0
0.0333333351 -0.0250000004 0
0.0299999993 -0.0250000004 0
0.0266666673 -0.0250000004 0
0.0233333334 -0.0250000004 0
0.0199999996 -0.0250000004 0
0.0166666675 -0.0250000004 0
0.0133333337 -0.0250000004 0
0.00999999978 -0.0250000004 0
0.00666666683 -0.0250000004 0
0.00333333341 -0.0250000004 0
0.0 -0.0250000004 0
0.100000001 -0.0283333343 0
0.0966666639 -0.0283333343 0
0.0933333337 -0.0283333343 0
0.0900000036 -0.0283333343 0
0.086666666 -0.0283333343 0
0.0833333358 -0.0283333343 0
0.0799999982 -0.0283333343 0
0.0766666681 -0.0283333343 0
0.0733333305 -0.0283333343 0
0.0700000003 -0.0283333343 0
0.0666666701 -0.0283333343 0
0.0633333325 -0.0283333343 0
0.0599999987 -0.0283333343 0
0.0566666685 -0.0283333343 0
0.0533333346 -0.0283333343 0
0.0500000007 -0.0283333343 0
0.0466666669 -0.0283333343 0
0.043333333 -0.0283333343 0
0.0399999991 -0.0283333343 0
0.0366666652 -0.0283333343 0
0.0333333351 -0.0283333343 0
0.0299999993 -0.0283333343 0
0.0266666673 -0.0283333343 0
0.0233333334 -0.0283333343 0
0.0199999996 -0.0283333343 0
0.0166666675 -0.0283333343 0
0.0133333337 -0.0283333343 0
0.00999999978 -0.0283333343 0
0.00666666683 -0.0283333343 0
0.00333333341 -0.0283333343 0
0.0 -0.0283333343 0
[...]
POINT_DATA 961
SCALARS Temp float 1
LOOKUP_TABLE default
292.1342190508956
260.3286479985989
237.22812406796467
221.68676720332155
212.01292011545632
206.43704183868385
203.45387421079218
201.96720506680705
201.27416414120708
200.97056758275988
200.8450036127111
200.79574876716438
200.77734766170596
200.77078953983022
200.76860475293233
200.7680965003198
200.76860475278298
200.7707895393368
200.77734767274572
200.79574879905306
200.84500351626733
200.97056766556798
201.27416459707212
201.9672049501684
203.45387627990834
206.43703910855479
212.01292303615136
221.6867584751818
237.22812674978803
260.32867808193544
292.134218770655
260.3286802638542
227.40831371086784
203.49703798360056
187.40925572813595
177.39452972473205
171.62166999707114
168.53281676819032
166.99332065598824
166.27557695798728
165.9611250989429
165.83105755247712
165.78003071981712
165.76096566902334
165.75417025506133
165.75190621796105
165.75137949817304
165.75190621780635
165.75417025455008
165.76096568046185
165.7800307528543
165.83105745256896
165.9611251847163
166.2755774301213
166.99332053518953
168.532818910705
171.62166717032625
177.39453274845866
187.4092466927385
203.49704075961208
227.40834484930537
260.32867997383363
237.22812838007
203.49700822598695
178.99397877715236
162.50543500841565
152.23920413075544
146.32000387864738
143.15203791279234
141.57267870729794
140.83613995495458
140.51336010990082
140.3798091041547
140.32740068807968
140.3078139806341
140.3008307668101
140.29850360119073
140.29796210718084
140.29850360103157
140.30083076628458
140.30781399238683
140.32740072201466
140.37980900155648
140.5133601979579
140.8361404395077
141.57267858332824
143.1520401104426
146.3200009797904
152.23920723072862
162.50542574691113
178.9939816220397
203.49704013309255
237.22812808302254
221.68675880294882
187.40921225410347
162.5054214453048
145.74369106491173
135.30463630947335
129.2839410431627
126.06054460182897
124.45295270296586
123.70295439766154
123.37414410635054
123.23804290797612
123.18461223828018
123.16463558586145
123.15751062864724
123.15513540697958
123.15458260206447
123.15513540681712
123.15751062811078
123.16463559784968
123.18461227288233
123.23804280339792
123.37414419606995
123.70295489114771
124.45295257672001
126.06054683829143
129.283938093978
135.3046394620523
145.74368164858234
162.50542433695747
187.40924468048328
221.6867585012475
212.01292345942804
177.39449806046397
152.23920298337958
135.304649076617
124.7551753477599
118.66888706682268
115.4092125693102
113.782893762818
113.02384363299288
112.6909210822933
112.55305688579567
112.49891003381734
112.4786566698349
112.4714299070034
112.46901979873066
112.46845872422935
112.46901979856585
112.47142990645918
112.47865668199141
112.49891006888879
112.55305677983945
112.6909211731536
113.02384413252008
113.7828936350367
115.40921483132331
118.66888408485926
124.75517853411742
135.30463956179966
152.2392059044747
177.3945308117222
212.0129231548911
206.43704054684196
171.62163333141655
146.31999778275483
129.28394886137232
118.66888198449288
112.54310689959398
109.26126868169837
107.6233274155953
106.8585672060823
106.5230075057377
106.38399412045216
106.32937294033516
106.30893347751098
106.30163724730643
106.29920302706645
106.29863618843407
106.2992030268999
106.30163724675683
106.30893348978114
106.32937297571934
106.38399401359052
106.52300759733524
106.85856770944547
107.62332728684194
109.261270959429
112.54310389771818
118.66888519103298
129.28393928834632
146.320000721046
171.62166627104114
206.43704024071496
203.45387661006907
168.53278381580486
143.15203572199061
126.06055643979906
115.40921150821404
109.26127274884533
105.96678791736876
104.32209665612002
103.55395853552298
103.21680926380998
103.07709012403308
103.02217225171486
103.00161430057561
102.99427309115043
102.99182302490425
102.9912523608983
102.99182302473668
102.99427309059729
103.00161431291878
103.02217228729603
103.07709001661013
103.21680935585613
103.55395904117265
104.32209652678927
105.96679020413745
109.2612697356793
115.4092147259888
126.06054683476128
143.15203866961775
168.53281685686767
203.4538763031197
201.9672055453988
166.9932856602864
141.57267446904015
124.45296248095205
113.7828905956123
107.62332937167398
104.32209452824642
102.67373091111538
101.90371768278922
101.565667631685
101.42554017605124
101.37044709941205
101.34981776946609
101.34244894544318
101.33998898602607
101.33941590723985
101.33998898585783
101.34244894488789
101.34981778185362
101.37044713511035
101.42554006830024
101.56566772398766
101.90371818971887
102.6737307814627
104.3220968198797
107.62332635252291
113.78289381922659
124.45295285948967
141.57267742139325
166.99331875225334
201.96720523805587
201.27416503283735
166.27554236451164
140.83613615230036
123.70296463068483
113.02384091560234
106.85856962027464
103.55395686368979
101.90371814232276
101.1327268377888
100.79419644155999
100.65384632185548
100.59865554894218
100.57798553860715
100.57060064441356
100.56813482016862
100.56756029240113
100.56813481999991
100.57060064385702
100.57798555102003
100.59865558470639
100.65384621392334
100.79419653400113
101.13272734539203
101.90371801250133
103.55395915777902
106.85856659814988
113.02384414205926
123.70295500133363
140.83613910689252
166.27557548037893
201.27416472531917
200.97056791920866
165.96108991919044
140.5133557155617
123.37415374186217
112.6909177551377
106.52300930767122
103.2168069749389
101.56566747370142
100.79419582289755
100.45542401942612
100.31495932395337
100.25971707389566
100.23902512110872
100.23163136160512
100.22916223663532
100.22858688266537
100.22916223646632
100.23163136104783
100.23902513353538
100.25971710969478
100.31495921592686
100.45542411193762
100.79419633083482
101.56566734379675
103.2168092701946
106.52300628415742
112.69092098289536
123.37414410894996
140.51335867115114
165.9611230456039
200.9705676116175
200.84500384864086
165.83102226389974
140.37980460223517
123.23805243599696
112.55305344762981
106.38399581138975
103.07708772270108
101.42553990575416
100.653845590541
100.314959211396
100.17443879533089
100.11917088473469
100.09846772164121
100.09106932381361
100.08859843494837
100.08802263332994
100.08859843477936
100.09106932325591
100.09846773407502
100.11917092055143
100.17443868725795
100.31495930394117
100.65384609863455
101.42553977581073
103.07709001847941
106.38399278726378
112.55305667594915
123.23804280156774
140.37980755824378
165.8310553947063
200.84500354102147
200.79574910087513
165.77999553068017
140.32739628992755
123.1846218729462
112.49890670285428
106.32937473979301
103.02216995910499
101.37044693837991
100.59865492701121
100.25971707090386
100.11917099437066
100.0638909640667
100.0431823701613
100.0357816690989
100.03330988484275
100.0327338527191
100.03330988467373
100.035781668541
100.0431823825986
100.06389099989178
100.11917088627607
100.2597171634645
100.59865543517404
101.37044680841949
103.02217225510502
106.32937171541138
112.49890993140332
123.18461223790462
140.32739924610325
165.78002866322208
200.7957487932451
200.77734798080098
165.76093046404753
140.30780956683282
123.16464520490572
112.47865332271188
106.30893526082252
103.0016119915825
101.34981759208215
100.57798490026666
100.23902510172782
100.0984678148903
100.04318235376083
100.02247126303138
100.01506947610544
100.01259726014887
100.01202111527003
100.01259725997957
100.01506947554725
100.02247127547024
100.04318238958967
100.09846770678605
100.23902519429504
100.5779854084585
101.34981746211453
103.00161428767177
106.30893223633966
112.47865655135028
123.16463556962894
140.30781252307196
165.7609635972421
200.7773476731672
200.7707898494171
165.75413503998377
140.3008263428503
123.15752023744943
112.47142654937277
106.3016390200687
102.99427077148738
101.34244875738206
100.57059999536177
100.2316313315149
100.09106940635093
100.0357816419793
100.01506946538541
100.00766719442281
100.00519478175649
100.00461858476977
100.00519478158732
100.0076671938647
100.01506947782505
100.03578167780975
100.09106929824254
100.23163142408471
100.57060050356526
101.3424486274116
102.9942730676107
106.30163599554761
112.47142977804427
123.15751060208675
140.3008292991123
165.75416817341238
200.7707895417819
200.76860506368152
165.75187100400413
140.29849917845678
123.15514501707388
112.46901644236917
106.29920480113005
102.99182070653048
101.33998879927051
100.56813417242083
100.22916220785581
100.08859851879903
100.03330985903516
100.01259725074125
100.00519478306937
100.00272228889139
100.00214607004324
100.0027222887222
100.0051947825112
100.01259726318115
100.03330989486625
100.08859841068912
100.2291623004267
100.5681346806285
101.33998866929893
102.9918230026661
106.29920177659567
112.46901967105218
123.1551353816819
140.29850213472662
165.7519041375112
200.76860475604593
200.76809681178858
165.75134428494235
140.2979576852109
123.15459221294834
112.46845536865952
106.29863796330213
102.99125004332946
101.33941572129524
100.56755964546522
100.22858685470023
100.0880227179959
100.03273382772679
100.012021106678
100.0046185868981
100.00214607085886
100.00156984610143
100.00214607068972
100.00461858634011
100.01202111911796
100.03273386355802
100.08802260988561
100.22858694727132
100.56756015367408
101.3394155913235
102.99125233946803
106.2986349387645
112.46845859734516
123.15458257754946
140.29796064148258
165.7513774184678
200.76809650415305
200.76860506408352
165.75187100442085
140.29849917888524
123.15514501751112
112.46901644281297
106.29920480157828
102.99182070698168
101.33998879972356
100.56813417287489
100.22916220831054
100.08859851925405
100.03330985949032
100.01259725119655
100.00519478352464
100.00272228934669
100.00214607049853
100.0027222891775
100.00519478296657
100.01259726363637
100.03330989532144
100.08859841114418
100.2291623008814
100.56813468108264
101.33998866975192
102.99182300311719
106.29920177704393
112.46901967149594
123.15513538211921
140.29850213515505
165.75190413792802
200.7686047564482
200.77078985059754
165.75413504120712
140.30082634410758
123.15752023873245
112.4714265506743
106.30163902138298
102.99427077280981
101.34244875870965
100.57059999669234
100.23163133284704
100.09106940768392
100.0357816433127
100.01506946671907
100.00766719575651
100.00519478309039
100.00461858610348
100.0051947829212
100.00766719519844
100.0150694791587
100.03578167914313
100.09106929957566
100.23163142541684
100.57060050489572
101.3424486287391
102.99427306893321
106.30163599686182
112.47142977934584
123.15751060336976
140.30082930036966
165.75416817463588
200.77078954296258
200.7773479841418
165.76093046750916
140.30780957038948
123.16464520853356
112.47865332639057
106.3089352645355
103.00161199531748
101.34981759583037
100.57798490402247
100.2390251054879
100.09846781865241
100.04318235752399
100.02247126679492
100.01506947986915
100.0125972639127
100.01202111903393
100.01259726374354
100.01506947931118
100.02247127923383
100.0431823933529
100.0984677105481
100.23902519805499
100.57798541221433
101.3498174658627
103.00161429140665
106.3089322400526
112.47865655502902
123.16463557325686
140.30781252662868
165.76096360070375
200.777347676508
200.79574911085942
165.77999554102388
140.32739630055238
123.18462188377976
112.49890671383453
106.32937475087095
103.02216997024448
101.37044694955591
100.59865493820782
100.2597170821113
100.1191710055836
100.0638909752821
100.04318238137799
100.03578168031598
100.03330989606009
100.0327338639364
100.03330989589098
100.03578167975807
100.04318239381524
100.06389101110716
100.11917089748879
100.25971717467182
100.5986554463705
101.37044681959537
103.02217226624434
106.32937172648938
112.49890994238359
123.18461224873813
140.3273992567282
165.78002867356585
200.79574880322943
200.84500392006223
165.83102233788586
140.3798046782113
123.23805251343613
112.55305352608596
106.38399589051281
103.07708780223696
101.4255399855308
100.6538456704502
100.31495929137391
100.17443887534267
100.11917096476223
100.09846780167568
100.09106940385091
100.08859851498686
100.0880227133686
100.08859851481775
100.09106940329315
100.09846781410936
100.11917100057882
100.17443876726965
100.31495938391907
100.65384617854372
101.42553985558735
103.07709009801515
106.38399286638678
112.55305675440513
123.23804287900704
140.37980763421996
165.83105546869237
200.84500361244287
200.97056787284473
165.96108987116511
140.5133556662543
123.3741536916191
112.69091770425024
106.52300925636554
103.21680692337775
101.5656674219932
100.79419577110974
100.45542396759753
100.31495927210501
100.25971702203829
100.23902506924738
100.23163130974214
100.22916218477161
100.22858683080156
100.22916218460263
100.23163130918473
100.23902508167397
100.25971705783725
100.31495916407843
100.45542406010892
100.79419627904684
101.5656672920885
103.21680921863332
106.52300623285177
112.69092093200788
123.37414405870678
140.5133586218438
165.96112299757874
200.97056756525382
201.27416542698523
166.27554277272748
140.83613657125827
123.70296505737251
113.02384134752003
106.85857005551533
103.55395730091256
101.903718580656
101.13272727670696
100.79419688076831
100.6538467611997
100.59865598834682
100.57798597803705
100.57060108385362
100.56813525961236
100.56756073184577
100.56813525944362
100.57060108329699
100.57798599044986
100.59865602411082
100.65384665326748
100.79419697320935
101.13272778431013
101.90371845083456
103.55395959500196
106.85856703339067
113.02384457397699
123.70295542802138
140.8361395258505
166.27557588859503
201.2741651194672
201.96720529510083
166.99328540107373
141.57267420305894
124.45296221013714
113.782890321558
107.62332909558408
104.32209425095787
102.67373063316485
101.90371740449525
101.56566735322325
101.42553989751217
101.3704468208391
101.34981749087926
101.34244866685081
101.33998870743177
101.33941562864506
101.33998870726349
101.34244866629548
101.34981750326666
101.37044685653738
101.42553978976096
101.56566744552592
101.90371791142482
102.67373050351223
104.32209654259127
107.6233260764331
113.78289354517219
124.45295258867488
141.5726771554121
166.99331849304085
201.96720498775795
203.45387904079217
168.53278633275917
143.15203830372965
126.0605590671525
115.40921416560414
109.26127542471862
105.96679060387432
104.32209934835078
103.55396123064556
103.21681196030649
103.0770928211454
103.02217494908872
103.00161699805476
102.99427578866982
102.99182572243797
102.99125505843554
102.99182572227036
102.99427578811672
103.00161701039787
103.02217498466969
103.07709271372241
103.21681205235241
103.55396173629521
104.32209921902006
105.96679289064302
109.26127241155265
115.40921738337899
126.06054946211492
143.15204125135688
168.53281937382198
203.45387873384303
206.43704173156584
171.62163455801593
146.31999904050934
129.28395014077682
118.66888327792378
112.54310820149347
109.26126998836712
107.62332872477431
106.8585685164996
106.52300881672939
106.38399543169521
106.32937425168232
106.30893478889915
106.30163855871004
106.2992043384754
106.29863749984433
106.29920433830891
106.30163855816048
106.30893480116939
106.32937428706649
106.38399532483342
106.52300890832683
106.85856901986266
107.62332859602097
109.26127226609769
112.54310519961767
118.66888648446397
129.28394056775105
146.32000197880066
171.62166749764063
206.43704142543882
212.01291948603023
177.3944939468452
152.2391987658855
135.3046447873556
124.75517101233653
118.66888270376279
115.40920819083277
113.7828893763083
113.02383924256381
112.69091669006642
112.5530524927907
112.49890564049339
112.47865227638655
112.47142551350902
112.46901540522029
112.46845433071522
112.46901540505549
112.47142551296469
112.47865228854305
112.4989056755648
112.5530523868344
112.69091678092647
113.02383974209076
113.78288924852691
115.40921045284577
118.66887972179937
124.75517419869422
135.30463527253838
152.2392016869807
177.39452669810362
212.01291918149337
221.6867657831669
187.40921948000164
162.5054288519063
145.74369859516813
135.30464391832925
129.28394869843288
126.06055228260215
124.45296039681273
123.70296209778273
123.37415180930152
123.23805061213181
123.18461994292187
123.16464329068955
123.15751833354342
123.15514311189904
123.15459030698938
123.15514311173673
123.15751833300702
123.16464330267782
123.18461997752384
123.23805050755354
123.37415189902075
123.70296259126856
124.45296027056668
126.06055451906458
129.28394574924826
135.30464707090815
145.74368917883888
162.50543174355903
187.40925190638134
221.68676548146556
237.22812154830996
203.49700115421118
178.9939715297124
162.50542764157137
152.23919668864153
146.31999639251404
143.1520304027303
141.57267118510953
140.83613242701568
140.51335257939917
140.37980157257527
140.3273931560703
140.30780644846186
140.30082323457864
140.29849606893933
140.2979545749248
140.2984960687803
140.30082323405296
140.3078064602143
140.32739319000535
140.37980146997688
140.51335266745605
140.83613291156846
141.57267106113952
143.15203260038027
146.3199934936569
152.2391997886148
162.50541838006689
178.99397437459973
203.49703306131696
237.22812125126262
260.3287054466142
227.4083397768447
203.49706469300298
187.40928287218645
177.39455714070067
171.6216975706875
168.53284442669505
166.99334835708777
166.27560467908373
165.96115282886183
165.83108528607065
165.78005845486203
165.76099340461423
165.7541979908481
165.75193395381334
165.7514072340405
165.75193395365847
165.75419799033665
165.76099341605257
165.7800584878992
165.83108518616245
165.96115291463502
166.27560515121738
166.99334823628854
168.5328465692095
171.62169474394256
177.39456016442728
187.40927383678925
203.49706746901427
227.40837091528135
260.3287051565937
292.1342188867818
260.32864782876896
237.2281238940494
221.6867670267189
212.01291993722896
206.43704165955302
203.4538740311979
201.96720488699273
201.27416396129547
200.97056740280806
200.84500343274362
200.79574858719118
200.77734748173086
200.77078935985446
200.76860457295606
200.76809632034352
200.76860457280688
200.77078935936078
200.77734749277042
200.79574861907975
200.8450033362998
200.97056748561607
201.2741644171602
201.96720477035382
203.45387610031398
206.43703892942375
212.012922857924
221.686758298579
237.2281265758726
260.32867791210543
292.13421860654137
