# vtk DataFile Version 2.0
Unstructured Grid Example
ASCII
DATASET UNSTRUCTURED_GRID

POINTS 961 float
0.100000001 0.00499999989 0
0.0966666639 0.00499999989 0
0.0933333337 0.00499999989 0
0.0900000036 0.00499999989 0
0.086666666 0.00499999989 0
0.0833333358 0.00499999989 0
0.0799999982 0.00499999989 0
0.0766666681 0.00499999989 0
0.0733333305 0.00499999989 0
0.0700000003 0.00499999989 0
0.0666666701 0.00499999989 0
0.0633333325 0.00499999989 0
0.0599999987 0.00499999989 0
0.0566666685 0.00499999989 0
0.0533333346 0.00499999989 0
0.0500000007 0.00499999989 0
0.0466666669 0.00499999989 0
0.043333333 0.00499999989 0
0.0399999991 0.00499999989 0
0.0366666652 0.00499999989 0
0.0333333351 0.00499999989 0
0.0299999993 0.00499999989 0
0.0266666673 0.00499999989 0
0.0233333334 0.00499999989 0
0.0199999996 0.00499999989 0
0.0166666675 0.00499999989 0
0.0133333337 0.00499999989 0
0.00999999978 0.00499999989 0
0.00666666683 0.00499999989 0
0.00333333341 0.00499999989 0
0.0 0.00499999989 0
0.100000001 0.00166666671 0
0.0966666639 0.00166666671 0
0.0933333337 0.00166666671 0
0.0900000036 0.00166666671 0
0.086666666 0.00166666671 0
0.0833333358 0.00166666671 0
0.0799999982 0.00166666671 0
0.0766666681 0.00166666671 0
0.0733333305 0.00166666671 0
0.0700000003 0.00166666671 0
0.0666666701 0.00166666671 0
0.0633333325 0.00166666671 0
0.0599999987 0.00166666671 0
0.0566666685 0.00166666671 0
0.0533333346 0.00166666671 0
0.0500000007 0.00166666671 0
0.0466666669 0.00166666671 0
0.043333333 0.00166666671 0
0.0399999991 0.00166666671 0
0.0366666652 0.00166666671 0
0.0333333351 0.00166666671 0
0.0299999993 0.00166666671 0
0.0266666673 0.00166666671 0
0.0233333334 0.00166666671 0
0.0199999996 0.00166666671 0
0.0166666675 0.00166666671 0
0.0133333337 0.00166666671 0
0.00999999978 0.00166666671 0
0.00666666683 0.00166666671 0
0.00333333341 0.00166666671 0
0.0 0.00166666671 0
0.100000001 -0.00166666671 0
0.0966666639 -0.00166666671 0
0.0933333337 -0.00166666671 0
0.0900000036 -0.00166666671 0
0.086666666 -0.00166666671 0
0.0833333358 -0.00166666671 0
0.0799999982 -0.00166666671 0
0.0766666681 -0.00166666671 0
0.0733333305 -0.00166666671 0
0.0700000003 -0.00166666671 0
0.0666666701 -0.00166666671 0
0.0633333325 -0.00166666671 0
0.0599999987 -0.00166666671 0
0.0566666685 -0.00166666671 0
0.0533333346 -0.00166666671 0
0.0500000007 -0.00166666671 0
0.0466666669 -0.00166666671 0
0.043333333 -0.00166666671 0
0.0399999991 -0.00166666671 0
0.0366666652 -0.00166666671 0
0.0333333351 -0.00166666671 0
0.0299999993 -0.00166666671 0
0.0266666673 -0.00166666671 0
0.0233333334 -0.00166666671 0
0.0199999996 -0.00166666671 0
0.0166666675 -0.00166666671 0
0.0133333337 -0.00166666671 0
0.00999999978 -0.00166666671 0
0.00666666683 -0.00166666671 0
0.00333333341 -0.00166666671 0
0.0 -0.00166666671 0
0.100000001 -0.00499999989 0
0.0966666639 -0.00499999989 0
0.0933333337 -0.00499999989 0
0.0900000036 -0.00499999989 0
0.086666666 -0.00499999989 0
0.0833333358 -0.00499999989 0
0.0799999982 -0.00499999989 0
0.0766666681 -0.00499999989 0
0.0733333305 -0.00499999989 0
0.0700000003 -0.00499999989 0
0.0666666701 -0.00499999989 0
0.0633333325 -0.00499999989 0
0.0599999987 -0.00499999989 0
0.0566666685 -0.00499999989 0
0.0533333346 -0.00499999989 0
0.0500000007 -0.00499999989 0
0.0466666669 -0.00499999989 0
0.043333333 -0.00499999989 0
0.0399999991 -0.00499999989 0
0.0366666652 -0.00499999989 0
0.0333333351 -0.00499999989 0
0.0299999993 -0.00499999989 0
0.0266666673 -0.00499999989 0
0.0233333334 -0.00499999989 0
0.0199999996 -0.00499999989 0
0.0166666675 -0.00499999989 0
0.0133333337 -0.00499999989 0
0.00999999978 -0.00499999989 0
0.00666666683 -0.00499999989 0
0.00333333341 -0.00499999989 0
0.0 -0.00499999989 0
0.100000001 -0.00833333377 0
0.0966666639 -0.00833333377 0
0.0933333337 -0.00833333377 0
0.0900000036 -0.00833333377 0
0.086666666 -0.00833333377 0
0.0833333358 -0.00833333377 0
0.0799999982 -0.00833333377 0
0.0766666681 -0.00833333377 0
0.0733333305 -0.00833333377 0
0.0700000003 -0.00833333377 0
0.0666666701 -0.00833333377 0
0.0633333325 -0.00833333377 0
0.0599999987 -0.00833333377 0
0.0566666685 -0.00833333377 0
0.0533333346 -0.00833333377 0
0.0500000007 -0.00833333377 0
0.0466666669 -0.00833333377 0
0.043333333 -0.00833333377 0
0.0399999991 -0.00833333377 0
0.0366666652 -0.00833333377 0
0.0333333351 -0.00833333377 0
0.0299999993 -0.00833333377 0
0.0266666673 -0.00833333377 0
0.0233333334 -0.00833333377 0
0.0199999996 -0.00833333377 0
0.0166666675 -0.00833333377 0
0.0133333337 -0.00833333377 0
0.00999999978 -0.00833333377 0
0.00666666683 -0.00833333377 0
0.00333333341 -0.00833333377 0
0.0 -0.00833333377 0
0.100000001 -0.0116666667 0
0.0966666639 -0.0116666667 0
0.0933333337 -0.0116666667 0
0.0900000036 -0.0116666667 0
0.086666666 -0.0116666667 0
0.0833333358 -0.0116666667 0
0.0799999982 -0.0116666667 0
0.0766666681 -0.0116666667 0
0.0733333305 -0.0116666667 0
0.0700000003 -0.0116666667 0
0.0666666701 -0.0116666667 0
0.0633333325 -0.0116666667 0
0.0599999987 -0.0116666667 0
0.0566666685 -0.0116666667 0
0.0533333346 -0.0116666667 0
0.0500000007 -0.0116666667 0
0.0466666669 -0.0116666667 0
0.043333333 -0.0116666667 0
0.0399999991 -0.0116666667 0
0.0366666652 -0.0116666667 0
0.0333333351 -0.0116666667 0
0.0299999993 -0.0116666667 0
0.0266666673 -0.0116666667 0
0.0233333334 -0.0116666667 0
0.0199999996 -0.0116666667 0
0.0166666675 -0.0116666667 0
0.0133333337 -0.0116666667 0
0.00999999978 -0.0116666667 0
0.00666666683 -0.0116666667 0
0.00333333341 -0.0116666667 0
0.0 -0.0116666667 0
0.100000001 -0.0149999997 0
0.0966666639 -0.0149999997 0
0.0933333337 -0.0149999997 0
0.0900000036 -0.0149999997 0
0.086666666 -0.0149999997 0
0.0833333358 -0.0149999997 0
0.0799999982 -0.0149999997 0
0.0766666681 -0.0149999997 0
0.0733333305 -0.0149999997 0
0.0700000003 -0.0149999997 0
0.0666666701 -0.0149999997 0
0.0633333325 -0.0149999997 0
0.0599999987 -0.0149999997 0
0.0566666685 -0.0149999997 0
0.0533333346 -0.0149999997 0
0.0500000007 -0.0149999997 0
0.0466666669 -0.0149999997 0
0.043333333 -0.0149999997 0
0.0399999991 -0.0149999997 0
0.0366666652 -0.0149999997 0
0.0333333351 -0.0149999997 0
0.0299999993 -0.0149999997 0
0.0266666673 -0.0149999997 0
0.0233333334 -0.0149999997 0
0.0199999996 -0.0149999997 0
0.0166666675 -0.0149999997 0
0.0133333337 -0.0149999997 0
0.00999999978 -0.0149999997 0
0.00666666683 -0.0149999997 0
0.00333333341 -0.0149999997 0
0.0 -0.0149999997 0
0.100000001 -0.0183333326 0
0.0966666639 -0.0183333326 0
0.0933333337 -0.0183333326 0
0.0900000036 -0.0183333326 0
0.086666666 -0.0183333326 0
0.0833333358 -0.0183333326 0
0.0799999982 -0.0183333326 0
0.0766666681 -0.0183333326 0
0.0733333305 -0.0183333326 0
0.0700000003 -0.0183333326 0
0.0666666701 -0.0183333326 0
0.0633333325 -0.0183333326 0
0.0599999987 -0.0183333326 0
0.0566666685 -0.0183333326 0
0.0533333346 -0.0183333326 0
0.0500000007 -0.0183333326 0
0.0466666669 -0.0183333326 0
0.043333333 -0.0183333326 0
0.0399999991 -0.0183333326 0
0.0366666652 -0.0183333326 0
0.0333333351 -0.0183333326 0
0.0299999993 -0.0183333326 0
0.0266666673 -0.0183333326 0
0.0233333334 -0.0183333326 0
0.0199999996 -0.0183333326 0
0.0166666675 -0.0183333326 0
0.0133333337 -0.0183333326 0
0.00999999978 -0.0183333326 0
0.00666666683 -0.0183333326 0
0.00333333341 -0.0183333326 0
0.0 -0.0183333326 0
0.100000001 -0.0216666665 0
0.0966666639 -0.0216666665 0
0.0933333337 -0.0216666665 0
0.0900000036 -0.0216666665 0
0.086666666 -0.0216666665 0
0.0833333358 -0.0216666665 0
0.0799999982 -0.0216666665 0
0.0766666681 -0.0216666665 0
0.0733333305 -0.0216666665 0
0.0700000003 -0.0216666665 0
0.0666666701 -0.0216666665 0
0.0633333325 -0.0216666665 0
0.0599999987 -0.0216666665 0
0.0566666685 -0.0216666665 0
0.0533333346 -0.0216666665 0
0.0500000007 -0.0216666665 0
0.0466666669 -0.0216666665 0
0.043333333 -0.0216666665 0
0.0399999991 -0.0216666665 0
0.0366666652 -0.0216666665 0
0.0333333351 -0.0216666665 0
0.0299999993 -0.0216666665 0
0.0266666673 -0.0216666665 0
0.0233333334 -0.0216666665 0
0.0199999996 -0.0216666665 0
0.0166666675 -0.0216666665 0
0.0133333337 -0.0216666665 0
0.00999999978 -0.0216666665 0
0.00666666683 -0.0216666665 0
0.00333333341 -0.0216666665 0
0.0 -0.0216666665 0
0.100000001 -0.0250000004 0
0.0966666639 -0.0250000004 0
0.0933333337 -0.0250000004 0
0.0900000036 -0.0250000004 0
0.086666666 -0.0250000004 0
0.0833333358 -0.0250000004 0
0.0799999982 -0.0250000004 0
0.0766666681 -0.0250000004 0
0.0733333305 -0.0250000004 0
0.0700000003 -0.0250000004 0
0.0666666701 -0.0250000004 0
0.0633333325 -0.0250000004 0
0.0599999987 -0.0250000004 0
0.0566666685 -0.0250000004 0
0.0533333346 -0.0250000004 0
0.0500000007 -0.0250000004 0
0.0466666669 -0.0250000004 0
0.043333333 -0.0250000004 0
0.0399999991 -0.0250000004 0
0.0366666652 -0.0250000004 0
0.0333333351 -0.0250000004 0
0.0299999993 -0.0250000004 0
0.0266666673 -0.0250000004 0
0.0233333334 -0.0250000004 0
0.0199999996 -0.0250000004 0
0.0166666675 -0.0250000004 0
0.0133333337 -0.0250000004 0
0.00999999978 -0.0250000004 0
0.00666666683 -0.0250000004 0
0.00333333341 -0.0250000004 0
0.0 -0.0250000004 0
0.100000001 -0.0283333343 0
0.0966666639 -0.0283333343 0
0.0933333337 -0.0283333343 0
0.0900000036 -0.0283333343 0
0.086666666 -0.0283333343 0
0.0833333358 -0.0283333343 0
0.0799999982 -0.0283333343 0
0.0766666681 -0.0283333343 0
0.0733333305 -0.0283333343 0
0.0700000003 -0.0283333343 0
0.0666666701 -0.0283333343 0
0.0633333325 -0.0283333343 0
0.0599999987 -0.0283333343 0
0.0566666685 -0.0283333343 0
0.0533333346 -0.0283333343 0
0.0500000007 -0.0283333343 0
0.0466666669 -0.0283333343 0
0.043333333 -0.0283333343 0
0.0399999991 -0.0283333343 0
0.0366666652 -0.0283333343 0
0.0333333351 -0.0283333343 0
0.0299999993 -0.0283333343 0
0.0266666673 -0.0283333343 0
0.0233333334 -0.0283333343 0
0.0199999996 -0.0283333343 0
0.0166666675 -0.0283333343 0
0.0133333337 -0.0283333343 0
0.00999999978 -0.0283333343 0
0.00666666683 -0.0283333343 0
0.00333333341 -0.0283333343 0
0.0 -0.0283333343 0
[...]
POINT_DATA 961
SCALARS Temp float 1
LOOKUP_TABLE default
149.55694404571855
129.23999076568188
125.85392329223424
125.28574818439374
125.19036677887681
125.17432721718214
125.17162906403357
125.17117482154332
125.17109832741747
125.17108543997917
125.17108326826023
125.17108290218367
125.17108284046513
125.1710828300588
125.17108282831197
125.17108282806579
125.17108282831194
125.17108283005885
125.17108284046515
125.17108290218387
125.17108326825904
125.17108543998162
125.17109832745376
125.17117482152621
125.17162906528895
125.17432721251542
125.19036679692455
125.28574800741977
125.85392353534613
129.24000166561456
149.55694830253933
129.23999775767675
108.45601290414498
104.96661885347538
104.3808987618526
104.28239089292498
104.26582074971748
104.26303097842428
104.2625611933864
104.26248204379868
104.2624687061268
104.26246645783962
104.26246607878817
104.26246601486827
104.26246600408916
104.26246600227937
104.26246600202437
104.26246600227934
104.26246600408915
104.2624660148683
104.26246607878835
104.2624664578384
104.2624687061294
104.26248204383613
104.26256119336884
104.2630309797224
104.26582074489541
104.28239091156547
104.38089857933363
104.9666191040041
108.45602408020687
129.24000208883004
125.85391903674338
104.96660724563374
101.43748293136665
100.84241732108178
100.74213695856015
100.72523233895308
100.72238289677787
100.72190245060122
100.72182143794069
100.72180777463711
100.72180547002002
100.72180508123024
100.72180501563572
100.7218050045689
100.72180500271017
100.72180500244808
100.72180500271007
100.721805004569
100.7218050156358
100.7218050812304
100.72180547001881
100.72180777463979
100.7218214379791
100.72190245058322
100.72238289810427
100.72523233403213
100.7421369775482
100.84241713554607
101.43748318511537
104.96661849793863
125.85392337148804
125.28574339680908
104.38088658954486
100.84241676318705
100.24391007251926
100.14277970860061
100.12570024280696
100.122816138422
100.12232921641014
100.12224700751013
100.12223312881657
100.122230785652
100.12223039005154
100.12223032325859
100.12223031198252
100.12223031008747
100.12223030982015
100.12223031008736
100.12223031198245
100.12223032325866
100.12223039005171
100.1222307856508
100.12223312881936
100.1222470075491
100.12232921639189
100.122816139765
100.12570023783285
100.1427797277598
100.2439098857795
100.84241701784092
104.38089785652033
125.2857477311782
125.19036218655623
104.28237891925383
100.74213660519162
100.14277991512368
100.04134691351285
100.02418973857522
100.0212886361589
100.02079819747175
100.02071530378333
100.02070129452983
100.02069892716727
100.02069852713264
100.02069845953936
100.02069844811983
100.02069844619936
100.02069844592835
100.02069844619938
100.02069844811983
100.0206984595394
100.02069852713282
100.02069892716597
100.02070129453254
100.02071530382264
100.02079819745339
100.02128863751035
100.02418973357669
100.04134693273805
100.14277972803792
100.74213686003118
104.28239018885546
125.19036652093972
125.1743226031711
104.26580875312735
100.72523196269213
100.1257004263606
100.02418971542114
100.00700557916537
100.0040973388658
100.00360526268898
100.00352201743058
100.00350793715405
100.00350555584443
100.00350515315303
100.00350508506169
100.0035050735503
100.00350507161323
100.00350507133977
100.0035050716132
100.00350507355033
100.0035050850617
100.00350515315324
100.00350555584308
100.00350793715681
100.00352201747002
100.00360526267048
100.00409734022088
100.00700557415779
100.0241897346654
100.12570023919359
100.72523221756728
104.26582002320184
125.17432693754279
125.17162445389103
104.26301898574444
100.72238252458821
100.12281632612005
100.02128861714964
100.00409734302559
100.00118667491581
100.00069394030443
100.00061053820058
100.00059642314517
100.00059403457708
100.0005936304209
100.0005935620431
100.0005935504769
100.00059354852962
100.00059354825453
100.00059354852958
100.0005935504769
100.00059356204316
100.00059363042108
100.00059403457581
100.00059642314788
100.00061053824014
100.00069394028594
100.00118667627223
100.0040973380153
100.02128863639842
100.12281613893597
100.72238277947002
104.26303025590099
125.17162878826213
125.17117021017013
104.26254919941873
100.72190207710945
100.12232940279489
100.02079817713663
100.00360526552083
100.00069393897444
100.0002009837972
100.00011752072282
100.00010339069763
100.00010099871538
100.00010059382562
100.00010052529616
100.00010051369954
100.00010051174633
100.0001005114704
100.00010051174631
100.00010051369962
100.00010052529619
100.0001005938259
100.00010099871405
100.00010339070035
100.00011752076236
100.00020098377865
100.0006939403312
100.00360526050981
100.02079819638642
100.12232921560752
100.72190233199245
104.26256046958956
125.17117454454107
125.17109371604663
104.26247004983067
100.72182106445103
100.12224719389809
100.02071528345067
100.00352202026508
100.0006105368732
100.0001175207255
100.00003403746504
100.00001990177472
100.00001750836672
100.0000171031438
100.00001703454083
100.00001702292866
100.0000170209722
100.00001702069582
100.00001702097227
100.00001702292863
100.00001703454085
100.00001710314393
100.00001750836532
100.00001990177735
100.00003403750463
100.00011752070685
100.00061053823002
100.00352201525389
100.02071530270057
100.12224700671004
100.72182131933425
104.26248132000393
125.17109805041744
125.17108082856328
104.26245671211177
100.72180740109982
100.12223331515627
100.02070127414827
100.00350793993967
100.00059642176862
100.00010339065122
100.00001990172558
100.00000576417654
100.00000337024056
100.00000296488201
100.0000028962466
100.00000288462715
100.00000288266916
100.00000288239247
100.00000288266925
100.00000288462721
100.00000289624667
100.00000296488217
100.00000337023918
100.00000576417929
100.00001990176516
100.00010339063265
100.00059642312553
100.00350793492848
100.02070129339826
100.1222331279681
100.72180765598301
104.26246798228549
125.17108516293418
125.17107865684264
104.26245446382272
100.72180509648084
100.1222309719899
100.02069890678386
100.00350555862812
100.00059403319874
100.00010099866702
100.00001750831571
100.00000337023867
100.00000097613069
100.0000005707228
100.00000050207451
100.00000049045194
100.00000048849324
100.00000048821641
100.00000048849326
100.00000049045197
100.00000050207451
100.000000570723
100.00000097612933
100.0000033702414
100.00001750835526
100.00010099864846
100.00059403455563
100.00350555361699
100.02069892603383
100.12223078480176
100.721805351364
104.26246573399656
125.17108299121352
125.17107829076708
104.26245408477241
100.72180470769212
100.1222305763905
100.02069850675035
100.00350515593799
100.00059362904355
100.00010059377853
100.00001710309394
100.00000296488139
100.00000057072397
100.00000016530008
100.0000000966472
100.00000008502343
100.00000008306445
100.00000008278748
100.0000000830644
100.0000000850234
100.00000009664721
100.00000016530022
100.00000057072266
100.00000296488403
100.00001710313356
100.00010059375997
100.00059363040054
100.00350515092671
100.02069852600036
100.12223038920233
100.72180496257536
104.26246535494622
125.17108262513803
125.17107822904858
104.2624540208524
100.72180464209754
100.12223050959753
100.02069843915703
100.00350508784642
100.00059356066583
100.00010052524895
100.0000170344909
100.00000289624589
100.00000050207566
100.00000009664711
100.00000002799275
100.00000001636849
100.00000001440944
100.00000001413245
100.0000000144094
100.00000001636852
100.00000002799274
100.00000009664726
100.00000050207422
100.00000289624853
100.00001703453044
100.00010052523037
100.00059356202264
100.0035050828352
100.02069845840698
100.12223032240932
100.72180489698074
104.26246529102622
125.17108256341945
125.17107821864218
104.26245401007318
100.72180463103076
100.12223049832134
100.02069842773743
100.00350507633505
100.00059354909955
100.00010051365236
100.0000170228788
100.00000288462643
100.0000004904531
100.00000008502326
100.00000001636857
100.00000000474414
100.00000000278489
100.00000000250803
100.00000000278492
100.00000000474414
100.00000001636853
100.00000008502346
100.00000049045161
100.00000288462908
100.00001702291831
100.00010051363368
100.0005935504564
100.00350507132389
100.0206984469874
100.12223031113315
100.72180488591395
104.26246528024699
125.17108255301306
125.17107821689521
104.2624540082634
100.72180462917188
100.12223049642624
100.020698425817
100.00350507439788
100.0005935471522
100.00010051169902
100.00001702092233
100.00000288266837
100.00000048849434
100.0000000830643
100.00000001440934
100.00000000278493
100.00000000082575
100.00000000054884
100.00000000082579
100.00000000278493
100.00000001440935
100.00000008306444
100.00000048849292
100.00000288267105
100.00001702096186
100.00010051168049
100.00059354850906
100.00350506938678
100.02069844506704
100.12223030923805
100.72180488405512
104.26246527843723
125.17108255126611
125.17107821664906
104.26245400800836
100.72180462890988
100.12223049615902
100.02069842554604
100.00350507412445
100.00059354687714
100.0001005114231
100.00001702064583
100.0000028823917
100.00000048821747
100.00000008278735
100.00000001413245
100.00000000250799
100.00000000054888
100.00000000027192
100.00000000054885
100.00000000250802
100.00000001413244
100.00000008278748
100.00000048821607
100.00000288239431
100.00001702068538
100.0001005114045
100.00059354823408
100.00350506911329
100.02069844479607
100.12223030897077
100.7218048837931
104.26246527818219
125.17108255101998
125.1710782168953
104.26245400826342
100.7218046291719
100.1222304964262
100.02069842581703
100.00350507439798
100.00059354715215
100.00010051169903
100.0000170209223
100.00000288266841
100.00000048849434
100.00000008306428
100.00000001440935
100.00000000278496
100.00000000082571
100.00000000054881
100.00000000082572
100.00000000278493
100.00000001440937
100.0000000830644
100.0000004884929
100.00000288267107
100.00001702096182
100.00010051168047
100.00059354850907
100.0035050693868
100.02069844506701
100.12223030923805
100.72180488405513
104.26246527843722
125.17108255126614
125.17107821864218
104.2624540100732
100.72180463103075
100.12223049832136
100.0206984277375
100.00350507633507
100.00059354909956
100.00010051365233
100.00001702287874
100.00000288462641
100.00000049045305
100.00000008502325
100.0000000163685
100.0000000047441
100.00000000278494
100.00000000250802
100.00000000278492
100.00000000474414
100.00000001636847
100.0000000850234
100.00000049045165
100.00000288462907
100.0000170229183
100.00010051363373
100.00059355045646
100.00350507132387
100.02069844698747
100.12223031113315
100.7218048859139
104.26246528024707
125.17108255301304
125.17107822904856
104.26245402085236
100.72180464209758
100.12223050959753
100.02069843915703
100.00350508784642
100.00059356066585
100.00010052524894
100.00001703449091
100.00000289624586
100.00000050207566
100.00000009664713
100.00000002799274
100.00000001636847
100.00000001440937
100.00000001413241
100.00000001440938
100.00000001636849
100.00000002799277
100.00000009664728
100.00000050207427
100.00000289624857
100.00001703453044
100.00010052523031
100.0005935620227
100.00350508283526
100.02069845840695
100.12223032240935
100.72180489698083
104.26246529102613
125.17108256341938
125.17107829076716
104.26245408477249
100.72180470769221
100.1222305763906
100.02069850675045
100.00350515593802
100.00059362904368
100.00010059377858
100.00001710309401
100.0000029648814
100.00000057072404
100.00000016530018
100.00000009664734
100.00000008502347
100.0000000830644
100.00000008278754
100.00000008306446
100.00000008502352
100.00000009664723
100.0000001653003
100.00000057072273
100.00000296488417
100.00001710313352
100.00010059376004
100.00059363040059
100.00350515092687
100.02069852600043
100.12223038920241
100.72180496257545
104.2624653549463
125.17108262513806
125.17107865684359
104.26245446382367
100.72180509648184
100.12223097199092
100.0206989067848
100.00350555862919
100.00059403319976
100.0001009986681
100.00001750831677
100.00000337023971
100.00000097613176
100.00000057072381
100.00000050207555
100.000000490453
100.00000048849428
100.00000048821742
100.00000048849424
100.00000049045296
100.00000050207558
100.00000057072398
100.0000009761304
100.00000337024242
100.00001750835638
100.00010099864951
100.00059403455661
100.00350555361798
100.02069892603483
100.12223078480267
100.72180535136502
104.26246573399746
125.17108299121446
125.17108082856194
104.26245671211036
100.72180740109837
100.12223331515487
100.02070127414687
100.00350793993823
100.00059642176724
100.00010339064977
100.00001990172419
100.0000057641752
100.00000337023916
100.00000296488064
100.00000289624528
100.0000028846258
100.0000028826678
100.00000288239109
100.00000288266774
100.00000288462577
100.0000028962452
100.00000296488075
100.00000337023785
100.00000576417794
100.00001990176368
100.00010339063118
100.00059642312414
100.00350793492707
100.02070129339684
100.12223312796674
100.72180765598162
104.26246798228415
125.17108516293283
125.17109371607741
104.2624700498625
100.72182106448366
100.12224719393123
100.0207152834841
100.00352202029859
100.00061053690682
100.00011752075918
100.00003403749876
100.00001990180839
100.00001750840046
100.00001710317748
100.00001703457454
100.00001702296241
100.00001702100596
100.00001702072944
100.0000170210059
100.00001702296231
100.00001703457454
100.00001710317764
100.00001750839908
100.00001990181107
100.0000340375383
100.00011752074056
100.00061053826359
100.00352201528747
100.020715302734
100.12224700674318
100.72182131936684
104.26248132003582
125.1710980504483
125.17117021012453
104.26254919937143
100.72190207706115
100.12232940274593
100.02079817708739
100.00360526547128
100.00069393892483
100.00020098374759
100.00011752067319
100.00010339064808
100.00010099866576
100.0001005937761
100.0001005252466
100.00010051364994
100.0001005116967
100.00010051142081
100.00010051169666
100.00010051364991
100.00010052524657
100.00010059377624
100.00010099866442
100.00010339065074
100.0001175207127
100.000200983729
100.00069394028158
100.00360526046028
100.02079819633714
100.12232921555855
100.7219023319442
104.2625604695424
125.17117454449536
125.17162445535656
104.26301898726001
100.72238252613676
100.12281632768787
100.02128861872737
100.00409734460763
100.00118667649933
100.00069394188844
100.00061053978472
100.00059642472931
100.0005940361613
100.00059363200506
100.00059356362729
100.00059355206109
100.00059355011378
100.00059354983868
100.0005935501137
100.00059355206112
100.00059356362732
100.00059363200518
100.00059403615995
100.00059642473202
100.00061053982425
100.00069394186987
100.00118667785574
100.00409733959731
100.02128863797613
100.12281614050383
100.72238278101845
104.2630302574165
125.17162878972779
125.17432260569669
104.26580875573734
100.72523196535572
100.12570042905323
100.02418971812715
100.00700558187638
100.00409734157834
100.00360526540176
100.0035220201434
100.003507939867
100.00350555855739
100.00350515586598
100.00350508777457
100.00350507626324
100.00350507432614
100.0035050740526
100.00350507432617
100.00350507626321
100.0035050877745
100.0035051558662
100.00350555855604
100.0035079398697
100.0035220201829
100.0036052653833
100.00409734293338
100.00700557686878
100.02418973737146
100.12570024188628
100.72523222023085
104.26582002581186
125.17432694006833
125.19036216367842
104.28237889562371
100.7421365811232
100.14277989083917
100.04134688914569
100.02418971418399
100.02128861176185
100.02079817307342
100.02071527938472
100.02070127013114
100.02069890276859
100.02069850273398
100.02069843514069
100.02069842372113
100.0206984218007
100.02069842152967
100.02069842180067
100.02069842372114
100.02069843514072
100.02069850273413
100.02069890276722
100.0207012701338
100.02071527942404
100.02079817305496
100.02128861311326
100.02418970918535
100.0413469083708
100.14277970375335
100.74213683596281
104.28239016522525
125.19036649806196
125.28574354995764
104.3808867475098
100.84241692376148
100.24391023414657
100.14277987052873
100.12570040480274
100.12281630043171
100.1223293784226
100.12224716952305
100.12223329082961
100.12223094766516
100.12223055206454
100.12223048527163
100.12223047399547
100.12223047210043
100.12223047183315
100.12223047210043
100.1222304739955
100.12223048527163
100.12223055206468
100.12223094766381
100.12223329083228
100.12224716956203
100.12232937840426
100.12281630177466
100.12570039982862
100.14277988968792
100.2439100474068
100.84241717841537
104.38089801448542
125.28574788432688
125.85391854325042
104.96660673694831
101.43748241638541
100.84241680431413
100.7421364413741
100.72523182168113
100.72238237948969
100.72190193331006
100.72182092064905
100.72180725734536
100.72180495272815
100.72180456393839
100.7218044983439
100.72180448727704
100.7218044854183
100.72180448515624
100.72180448541826
100.72180448727707
100.7218044983439
100.72180456393852
100.72180495272688
100.72180725734796
100.72182092068732
100.72190193329197
100.72238238081607
100.72523181676014
100.74213646036219
100.84241661877843
101.43748267013414
104.96661798925322
125.85392287799519
129.24000670685487
108.45602207927753
104.9666280910309
104.38090801159272
104.28240014486705
104.26583000205522
104.26304023083081
104.26257044580497
104.26249129621924
104.26247795854772
104.26247571026063
104.26247533120915
104.26247526728928
104.26247525651011
104.26247525470032
104.26247525444525
104.26247525470028
104.26247525651013
104.26247526728922
104.26247533120934
104.26247571025928
104.26247795855026
104.2624912962567
104.26257044578733
104.26304023212884
104.26582999723315
104.28240016350762
104.3809078290737
104.96662834155951
108.45603325533935
129.24001103800825
149.55694755129548
129.23999433191156
125.85392686075745
125.28575175242314
125.19037034690776
125.17433078520445
125.17163263205565
125.17117838956526
125.17110189543943
125.17108900800109
125.17108683628216
125.17108647020554
125.17108640848699
125.17108639808072
125.17108639633378
125.17108639608753
125.17108639633376
125.17108639808073
125.17108640848707
125.17108647020571
125.17108683628085
125.17108900800353
125.17110189547557
125.1711783895481
125.17163263331106
125.17433078053767
125.19037036495544
125.2857515754492
125.85392710386931
129.24000523184415
149.55695180811625
