# vtk DataFile Version 2.0
Unstructured Grid Example
ASCII
DATASET UNSTRUCTURED_GRID

POINTS 961 float
0.100000001 0.00499999989 0
0.0966666639 0.00499999989 0
0.0933333337 0.00499999989 0
0.0900000036 0.00499999989 0
0.086666666 0.00499999989 0
0.0833333358 0.00499999989 0
0.0799999982 0.00499999989 0
0.0766666681 0.00499999989 0
0.0733333305 0.00499999989 0
0.0700000003 0.00499999989 0
0.0666666701 0.00499999989 0
0.0633333325 0.00499999989 0
0.0599999987 0.00499999989 0
0.0566666685 0.00499999989 0
0.0533333346 0.00499999989 0
0.0500000007 0.00499999989 0
0.0466666669 0.00499999989 0
0.043333333 0.00499999989 0
0.0399999991 0.00499999989 0
0.0366666652 0.00499999989 0
0.0333333351 0.00499999989 0
0.0299999993 0.00499999989 0
0.0266666673 0.00499999989 0
0.0233333334 0.00499999989 0
0.0199999996 0.00499999989 0
0.0166666675 0.00499999989 0
0.0133333337 0.00499999989 0
0.00999999978 0.00499999989 0
0.00666666683 0.00499999989 0
0.00333333341 0.00499999989 0
0.0 0.00499999989 0
0.100000001 0.00166666671 0
0.0966666639 0.00166666671 0
0.0933333337 0.00166666671 0
0.0900000036 0.00166666671 0
0.086666666 0.00166666671 0
0.0833333358 0.00166666671 0
0.0799999982 0.00166666671 0
0.0766666681 0.00166666671 0
0.0733333305 0.00166666671 0
0.0700000003 0.00166666671 0
0.0666666701 0.00166666671 0
0.0633333325 0.00166666671 0
0.0599999987 0.00166666671 0
0.0566666685 0.00166666671 0
0.0533333346 0.00166666671 0
0.0500000007 0.00166666671 0
0.0466666669 0.00166666671 0
0.043333333 0.00166666671 0
0.0399999991 0.00166666671 0
0.0366666652 0.00166666671 0
0.0333333351 0.00166666671 0
0.0299999993 0.00166666671 0
0.0266666673 0.00166666671 0
0.0233333334 0.00166666671 0
0.0199999996 0.00166666671 0
0.0166666675 0.00166666671 0
0.0133333337 0.00166666671 0
0.00999999978 0.00166666671 0
0.00666666683 0.00166666671 0
0.00333333341 0.00166666671 0
0.0 0.00166666671 0
0.100000001 -0.00166666671 0
0.0966666639 -0.00166666671 0
0.0933333337 -0.00166666671 0
0.0900000036 -0.00166666671 0
0.086666666 -0.00166666671 0
0.0833333358 -0.00166666671 0
0.0799999982 -0.00166666671 0
0.0766666681 -0.00166666671 0
0.0733333305 -0.00166666671 0
0.0700000003 -0.00166666671 0
0.0666666701 -0.00166666671 0
0.0633333325 -0.00166666671 0
0.0599999987 -0.00166666671 0
0.0566666685 -0.00166666671 0
0.0533333346 -0.00166666671 0
0.0500000007 -0.00166666671 0
0.0466666669 -0.00166666671 0
0.043333333 -0.00166666671 0
0.0399999991 -0.00166666671 0
0.0366666652 -0.00166666671 0
0.0333333351 -0.00166666671 0
0.0299999993 -0.00166666671 0
0.0266666673 -0.00166666671 0
0.0233333334 -0.00166666671 0
0.0199999996 -0.00166666671 0
0.0166666675 -0.00166666671 0
0.0133333337 -0.00166666671 0
0.00999999978 -0.00166666671 0
0.00666666683 -0.00166666671 0
0.00333333341 -0.00166666671 0
0.0 -0.00166666671 0
0.100000001 -0.00499999989 0
0.0966666639 -0.00499999989 0
0.0933333337 -0.00499999989 0
0.0900000036 -0.00499999989 0
0.086666666 -0.00499999989 0
0.0833333358 -0.00499999989 0
0.0799999982 -0.00499999989 0
0.0766666681 -0.00499999989 0
0.0733333305 -0.00499999989 0
0.0700000003 -0.00499999989 0
0.0666666701 -0.00499999989 0
0.0633333325 -0.00499999989 0
0.0599999987 -0.00499999989 0
0.0566666685 -0.00499999989 0
0.0533333346 -0.00499999989 0
0.0500000007 -0.00499999989 0
0.0466666669 -0.00499999989 0
0.043333333 -0.00499999989 0
0.0399999991 -0.00499999989 0
0.0366666652 -0.00499999989 0
0.0333333351 -0.00499999989 0
0.0299999993 -0.00499999989 0
0.0266666673 -0.00499999989 0
0.0233333334 -0.00499999989 0
0.0199999996 -0.00499999989 0
0.0166666675 -0.00499999989 0
0.0133333337 -0.00499999989 0
0.00999999978 -0.00499999989 0
0.00666666683 -0.00499999989 0
0.00333333341 -0.00499999989 0
0.0 -0.00499999989 0
0.100000001 -0.00833333377 0
0.0966666639 -0.00833333377 0
0.0933333337 -0.00833333377 0
0.0900000036 -0.00833333377 0
0.086666666 -0.00833333377 0
0.0833333358 -0.00833333377 0
0.0799999982 -0.00833333377 0
0.0766666681 -0.00833333377 0
0.0733333305 -0.00833333377 0
0.0700000003 -0.00833333377 0
0.0666666701 -0.00833333377 0
0.0633333325 -0.00833333377 0
0.0599999987 -0.00833333377 0
0.0566666685 -0.00833333377 0
0.0533333346 -0.00833333377 0
0.0500000007 -0.00833333377 0
0.0466666669 -0.00833333377 0
0.043333333 -0.00833333377 0
0.0399999991 -0.00833333377 0
0.0366666652 -0.00833333377 0
0.0333333351 -0.00833333377 0
0.0299999993 -0.00833333377 0
0.0266666673 -0.00833333377 0
0.0233333334 -0.00833333377 0
0.0199999996 -0.00833333377 0
0.0166666675 -0.00833333377 0
0.0133333337 -0.00833333377 0
0.00999999978 -0.00833333377 0
0.00666666683 -0.00833333377 0
0.00333333341 -0.00833333377 0
0.0 -0.00833333377 0
0.100000001 -0.0116666667 0
0.0966666639 -0.0116666667 0
0.0933333337 -0.0116666667 0
0.0900000036 -0.0116666667 0
0.086666666 -0.0116666667 0
0.0833333358 -0.0116666667 0
0.0799999982 -0.0116666667 0
0.0766666681 -0.0116666667 0
0.0733333305 -0.0116666667 0
0.0700000003 -0.0116666667 0
0.0666666701 -0.0116666667 0
0.0633333325 -0.0116666667 0
0.0599999987 -0.0116666667 0
0.0566666685 -0.0116666667 0
0.0533333346 -0.0116666667 0
0.0500000007 -0.0116666667 0
0.0466666669 -0.0116666667 0
0.043333333 -0.0116666667 0
0.0399999991 -0.0116666667 0
0.0366666652 -0.0116666667 0
0.0333333351 -0.0116666667 0
0.0299999993 -0.0116666667 0
0.0266666673 -0.0116666667 0
0.0233333334 -0.0116666667 0
0.0199999996 -0.0116666667 0
0.0166666675 -0.0116666667 0
0.0133333337 -0.0116666667 0
0.00999999978 -0.0116666667 0
0.00666666683 -0.0116666667 0
0.00333333341 -0.0116666667 0
0.0 -0.0116666667 0
0.100000001 -0.0149999997 0
0.0966666639 -0.0149999997 0
0.0933333337 -0.0149999997 0
0.0900000036 -0.0149999997 0
0.086666666 -0.0149999997 0
0.0833333358 -0.0149999997 0
0.0799999982 -0.0149999997 0
0.0766666681 -0.0149999997 0
0.0733333305 -0.0149999997 0
0.0700000003 -0.0149999997 0
0.0666666701 -0.0149999997 0
0.0633333325 -0.0149999997 0
0.0599999987 -0.0149999997 0
0.0566666685 -0.0149999997 0
0.0533333346 -0.0149999997 0
0.0500000007 -0.0149999997 0
0.0466666669 -0.0149999997 0
0.043333333 -0.0149999997 0
0.0399999991 -0.0149999997 0
0.0366666652 -0.0149999997 0
0.0333333351 -0.0149999997 0
0.0299999993 -0.0149999997 0
0.0266666673 -0.0149999997 0
0.0233333334 -0.0149999997 0
0.0199999996 -0.0149999997 0
0.0166666675 -0.0149999997 0
0.0133333337 -0.0149999997 0
0.00999999978 -0.0149999997 0
0.00666666683 -0.0149999997 0
0.00333333341 -0.0149999997 0
0.0 -0.0149999997 0
0.100000001 -0.0183333326 0
0.0966666639 -0.0183333326 0
0.0933333337 -0.0183333326 0
0.0900000036 -0.0183333326 0
0.086666666 -0.0183333326 0
0.0833333358 -0.0183333326 0
0.0799999982 -0.0183333326 0
0.0766666681 -0.0183333326 0
0.0733333305 -0.0183333326 0
0.0700000003 -0.0183333326 0
0.0666666701 -0.0183333326 0
0.0633333325 -0.0183333326 0
0.0599999987 -0.0183333326 0
0.0566666685 -0.0183333326 0
0.0533333346 -0.0183333326 0
0.0500000007 -0.0183333326 0
0.0466666669 -0.0183333326 0
0.043333333 -0.0183333326 0
0.0399999991 -0.0183333326 0
0.0366666652 -0.0183333326 0
0.0333333351 -0.0183333326 0
0.0299999993 -0.0183333326 0
0.0266666673 -0.0183333326 0
0.0233333334 -0.0183333326 0
0.0199999996 -0.0183333326 0
0.0166666675 -0.0183333326 0
0.0133333337 -0.0183333326 0
0.00999999978 -0.0183333326 0
0.00666666683 -0.0183333326 0
0.00333333341 -0.0183333326 0
0.0 -0.0183333326 0
0.100000001 -0.0216666665 0
0.0966666639 -0.0216666665 0
0.0933333337 -0.0216666665 0
0.0900000036 -0.0216666665 0
0.086666666 -0.0216666665 0
0.0833333358 -0.0216666665 0
0.0799999982 -0.0216666665 0
0.0766666681 -0.0216666665 0
0.0733333305 -0.0216666665 0
0.0700000003 -0.0216666665 0
0.0666666701 -0.0216666665 0
0.0633333325 -0.0216666665 0
0.0599999987 -0.0216666665 0
0.0566666685 -0.0216666665 0
0.0533333346 -0.0216666665 0
0.0500000007 -0.0216666665 0
0.0466666669 -0.0216666665 0
0.043333333 -0.0216666665 0
0.0399999991 -0.0216666665 0
0.0366666652 -0.0216666665 0
0.0333333351 -0.0216666665 0
0.0299999993 -0.0216666665 0
0.0266666673 -0.0216666665 0
0.0233333334 -0.0216666665 0
0.0199999996 -0.0216666665 0
0.0166666675 -0.0216666665 0
0.0133333337 -0.0216666665 0
0.00999999978 -0.0216666665 0
0.00666666683 -0.0216666665 0
0.00333333341 -0.0216666665 0
0.0 -0.0216666665 0
0.100000001 -0.0250000004 0
0.0966666639 -0.0250000004 0
0.0933333337 -0.0250000004 0
0.0900000036 -0.0250000004 0
0.086666666 -0.0250000004 0
0.0833333358 -0.0250000004 0
0.0799999982 -0.0250000004 0
0.0766666681 -0.0250000004 0
0.0733333305 -0.0250000004 0
0.0700000003 -0.0250000004 0
0.0666666701 -0.0250000004 0
0.0633333325 -0.0250000004 0
0.0599999987 -0.0250000004 0
0.0566666685 -0.0250000004 0
0.0533333346 -0.0250000004 0
0.0500000007 -0.0250000004 0
0.0466666669 -0.0250000004 0
0.043333333 -0.0250000004 0
0.0399999991 -0.0250000004 0
0.0366666652 -0.0250000004 0
0.0333333351 -0.0250000004 0
0.0299999993 -0.0250000004 0
0.0266666673 -0.0250000004 0
0.0233333334 -0.0250000004 0
0.0199999996 -0.0250000004 0
0.0166666675 -0.0250000004 0
0.0133333337 -0.0250000004 0
0.00999999978 -0.0250000004 0
0.00666666683 -0.0250000004 0
0.00333333341 -0.0250000004 0
0.0 -0.0250000004 0
0.100000001 -0.0283333343 0
0.0966666639 -0.0283333343 0
0.0933333337 -0.0283333343 0
0.0900000036 -0.0283333343 0
0.086666666 -0.0283333343 0
0.0833333358 -0.0283333343 0
0.0799999982 -0.0283333343 0
0.0766666681 -0.0283333343 0
0.0733333305 -0.0283333343 0
0.0700000003 -0.0283333343 0
0.0666666701 -0.0283333343 0
0.0633333325 -0.0283333343 0
0.0599999987 -0.0283333343 0
0.0566666685 -0.0283333343 0
0.0533333346 -0.0283333343 0
0.0500000007 -0.0283333343 0
0.0466666669 -0.0283333343 0
0.043333333 -0.0283333343 0
0.0399999991 -0.0283333343 0
0.0366666652 -0.0283333343 0
0.0333333351 -0.0283333343 0
0.0299999993 -0.0283333343 0
0.0266666673 -0.0283333343 0
0.0233333334 -0.0283333343 0
0.0199999996 -0.0283333343 0
0.0166666675 -0.0283333343 0
0.0133333337 -0.0283333343 0
0.00999999978 -0.0283333343 0
0.00666666683 -0.0283333343 0
0.00333333341 -0.0283333343 0
0.0 -0.0283333343 0
[...]
POINT_DATA 961
SCALARS Temp float 1
LOOKUP_TABLE default
305.9971215275232
274.31754011653425
250.58535060763776
233.93294349237442
223.00509662588237
216.299108714212
212.4466871567692
210.37076105470203
209.31865635412316
208.81559572008868
208.58789961972127
208.4900085434865
208.44991379026914
208.43427124513923
208.42861024419537
208.42721757888955
208.4286102437901
208.43427124389254
208.44991381520887
208.4900086090568
208.58789943656114
208.8155958633343
209.31865707083014
210.3707608743998
212.44668992101825
216.29910528496464
223.00510001618738
233.93293386377167
250.58535341065547
274.317570534293
305.9971212832762
274.3175726981621
241.5150186325406
216.94079768161563
199.69682135593095
188.38016994748895
181.4351571063182
177.44514328922455
175.2949107808967
174.20505927393978
173.6839068708126
173.44800214189416
173.34657343760398
173.30502625110375
173.28881574507503
173.28294877602892
173.28150537162108
173.28294877560893
173.28881574378295
173.30502627694796
173.34657350554602
173.44800195212267
173.683907019216
174.20506001638535
175.29491059412268
177.44514615229608
181.43515355468887
188.38017345851355
199.6968113849884
216.94080058413851
241.51505012903067
274.31757244529825
250.58535506549433
216.9407676933034
191.73361083723498
174.04349320180748
162.4324152374687
155.30552865307178
151.2102579310134
149.00285098614495
147.88377780270878
147.34853150359626
147.10619139459865
147.00197170326172
146.95927150091057
146.94260742547434
146.93657509789452
146.9350908165951
146.93657509746248
146.94260742414588
146.95927152747433
147.00197177307922
147.10619119962712
147.34853165603
147.8837785651309
149.00285079435432
151.2102608698763
155.3055250080163
162.43241884010163
174.04348297210478
191.73361381465952
216.9407999996325
250.58535480625207
233.9329341510951
199.69677646785948
174.04347845814507
156.0374932711872
144.216817844475
136.9596275160874
132.78840389867284
130.53942012531627
129.39892398697626
128.85325870171923
128.6061210377819
128.49980321812274
128.4562291090981
128.43921855393089
128.43305902863878
128.43154316082274
128.43305902819756
128.43921855257437
128.45622913620895
128.49980328935456
128.60612083891684
128.85325885714465
129.3989247640937
130.53941992984164
132.78840689241284
136.95962380380334
144.21682151250528
156.03748285773446
174.0434814884671
199.69680934406455
233.93293388745138
223.00510041267913
188.3801382526413
162.43241438672317
144.21683216310524
132.25613102779351
124.9111961877542
120.68837122831377
118.41086834596796
117.2555283249928
116.70256845431072
116.45203653496837
116.34421875638732
116.30001348076182
116.28275023066287
116.27649713255805
116.27495789712574
116.27649713211012
116.28275022928594
116.30001350826943
116.34421882863403
116.45203633333381
116.70256861184123
117.25552911233598
118.41086814793557
120.68837425949441
124.91119242995337
132.25613473966592
144.21682162727296
162.43241745203758
188.38017150414834
223.00510014620883
216.29910695967368
181.43511942511435
155.30552187904183
136.95963591255708
124.91119008833432
117.51075859058872
113.25495466392901
110.95901753051425
109.79396747453428
109.23617679894559
108.98336887169322
108.8745327373847
108.8298936958968
108.81245474508945
108.80613591082512
108.80458014908585
108.80613591037233
108.81245474369823
108.82989372367828
108.87453281032373
108.9833686681893
109.2361769578787
109.79396826860038
110.9590173308046
113.25495771915817
117.5107548038157
124.91119382779186
136.95962530031568
155.3055249660334
181.43515290789148
216.299106691515
212.44669021604832
177.44511045098386
151.21025625459316
132.78841755134894
120.68837038822733
113.25495999184017
108.97932663333299
106.67216262464403
105.50111816338436
104.94030303163728
104.68604965287567
104.57655747620609
104.5316350383672
104.51407973679203
104.50771684957375
104.50614992699366
104.50771684911783
104.51407973539122
104.53163506632876
104.5765575495935
104.6860494481757
104.94030319145483
105.501118961625
106.67216242389622
108.97932970310393
113.25495618772716
120.68837414398189
132.78840689435617
151.2102593541708
177.44514406724272
212.44668994695056
210.37076155822763
175.29487521820812
149.0028465817723
130.53943103418297
118.41086469353588
110.95902003906033
106.67215977771795
104.35854968913934
103.18401167456945
102.62140626261635
102.36628357195552
102.25639049491869
102.21129212215816
102.1936634844721
102.18727245574277
102.18569834149628
102.18727245528476
102.19366348306524
102.21129215023231
102.2563905685818
102.36628336653011
102.62140642296136
103.18401247525863
104.35854948778466
106.67216285577344
110.9590162251791
118.41086845834249
130.539420352567
149.00284968821083
175.29490890676107
210.37076128864243
209.31865754138067
174.20502438017738
147.88377412028004
129.39893564993565
117.25552541891186
109.79397074397052
105.50111607387537
103.18401243850938
102.00755050661984
101.44394251448675
101.18832453931984
101.07819904082534
101.03299689061087
101.0153242667035
101.00891610816578
101.00733757455987
101.00891610770657
101.01532426529283
101.03299691875175
101.07819911464924
101.18832433347724
101.4439426751297
102.0075513086671
103.18401223681956
105.50111915638351
109.7939669249017
117.25552918845472
129.39892495556418
147.8837772302386
174.2050581055664
209.31865727155846
208.81559603664508
173.68387105614926
147.34852689227029
128.8532694267149
116.70256458920154
109.23617910516732
104.9402999700231
102.62140605356478
101.44394153913349
100.87980177251485
100.62391624929522
100.5136628431475
100.46840251101341
100.45070477905374
100.44428668578573
100.44270556279459
100.44428668532564
100.45070477764102
100.46840253919194
100.51366291706044
100.62391604322501
100.87980193331722
101.4439423418936
102.62140585169985
104.94030305479347
109.23617528349581
116.70256836108464
128.85325872610568
147.3485300039334
173.68390479924898
208.8155957667149
208.5878997497621
173.44796612537212
147.10618658352547
128.60613156313465
116.45203246339753
108.98337097143833
104.68604638174932
102.36628315366688
101.18832335395389
100.62391603948605
100.36789331998551
100.25757303346687
100.21228167774356
100.19457030044812
100.1881467163276
100.18656414670255
100.1881467158672
100.1945702990343
100.21228170594237
100.25757310742677
100.36789311379736
100.62391620036945
101.18832415706895
102.36628295171518
104.68604946760861
108.98336714853001
116.45203623637553
128.60612085963734
147.10618969597007
173.44799987653298
208.58789947978548
208.49000886281587
173.34653761348366
147.00196709316765
128.49981395027018
116.34421489271824
108.87453504781632
104.57655441618274
102.25639028895162
101.07819806804875
100.51366284637126
100.25757324668231
100.14721969643458
100.10191259460318
100.08419415310385
100.07776767615373
100.07618433582384
100.0777676756931
100.0841941516893
100.10191262281243
100.14721977041802
100.25757304043607
100.51366300729384
101.07819887133171
102.25639008695912
104.57655750253977
108.87453122434988
116.34421866618283
128.49980324550287
147.00197020595257
173.3465713681296
208.4900085928204
208.4499140812519
173.30499039608037
146.9592668604212
128.45623981098782
116.30000958566045
108.82989597496102
104.53163194642873
102.21129188436149
101.03299588586184
100.46840248232036
100.21228185905045
100.10191256265627
100.05659785191217
100.03887592728762
100.03244799834444
100.03086426677929
100.03244799788355
100.03887592587265
100.05659788012633
100.10191263665092
100.21228165277691
100.46840264326087
101.03299668922037
102.2112916823507
104.5316350330022
108.82989215125485
116.30001335933072
128.45622910568883
146.95926997334726
173.30502415216148
208.44991381124908
208.4342715143212
173.28877986685902
146.94260276167705
128.4392292323281
116.2827463114235
108.81245699991875
104.51407662031146
102.19366322211586
101.01532323730224
100.45070472571398
100.19457045710212
100.08419409648148
100.03887590260956
100.02115235171658
100.01472373294513
100.01313981345778
100.01472373248424
100.02115235030146
100.0388759308261
100.08419417048127
100.19457025081631
100.45070488666217
101.01532404069299
102.19366302009733
104.51407970697434
108.81245317611469
116.28275008517657
128.43921852681723
146.94260587465882
173.288813623503
208.43427124431568
208.42861051622558
173.28291290054594
146.9365704371
128.4330697102108
116.27649321642983
108.80613816885179
104.50771373625582
102.1872721965942
101.00891508196723
100.44428663566862
100.18814687621163
100.0777676227575
100.0324479768939
100.01472373617399
100.00829482030393
100.00671081910617
100.00829481984303
100.01472373475876
100.03244800511142
100.07776769675934
100.18814666992091
100.44428679661995
101.00891588537061
102.18727199457267
104.50771682295287
108.80613434501105
116.27649699021397
128.43305900462195
146.9365735501023
173.28294665739446
208.42861024621882
208.42721785287722
173.2814694981132
146.93508615787943
128.43155384454482
116.27495398315294
108.80458240930486
104.5061468158692
102.18569808455916
101.00733655057552
100.44270551489934
100.18656430881164
100.07618428465231
100.03086424755436
100.01313981891253
100.0067108213323
100.00512679752846
100.00671082087133
100.0131398174974
100.03086427577206
100.0761843586547
100.18656410251964
100.4427056758515
101.00733735398221
102.18569788253686
104.50614990257492
108.80457858545468
116.2749577569448
128.43154313893652
146.93508927088683
173.28150325501247
208.42721758287047
208.42861051727738
173.28291290163617
146.93657043822114
128.43306971135559
116.27649321759216
108.80613817002637
104.50771373743866
102.1872721977822
101.00891508315846
100.44428663686169
100.18814687740563
100.07776762395208
100.03244797808877
100.01472373736897
100.00829482149896
100.00671082030122
100.00829482103806
100.01472373595378
100.03244800630625
100.07776769795393
100.18814667111498
100.44428679781298
101.00891588656184
102.18727199576061
104.50771682413556
108.80613434618556
116.27649699137616
128.43305900576675
146.9365735512235
173.28294665848495
208.42861024727094
208.43427151721403
173.28877986985697
146.94260276475913
128.43922923547456
116.28274631461693
108.81245700314523
104.51407662355967
102.19366322537803
101.01532324057264
100.45070472898911
100.19457046037984
100.08419409976065
100.03887590588931
100.0211523549966
100.0147237362254
100.01313981673803
100.01472373576453
100.0211523535816
100.03887593410582
100.08419417376032
100.19457025409409
100.45070488993734
101.01532404396332
102.1936630233594
104.51407971022265
108.81245317934113
116.2827500883701
128.43921852996374
146.942605877741
173.28881362650102
208.43427124720847
208.44991408874057
173.30499040384052
146.95926686839732
128.45623981912797
116.3000095939195
108.82989598330208
104.53163195482368
102.21129189278994
101.03299589431016
100.46840249077998
100.21228186751601
100.10191257112491
100.05659786038227
100.03887593575834
100.03244800681546
100.03086427525045
100.03244800635468
100.03887593434348
100.05659788859643
100.10191264511955
100.21228166124239
100.46840265172034
101.03299669766862
102.21129169077913
104.53163504139712
108.8298921595959
116.30001336758981
128.45622911382907
146.9592699813235
173.30502415992166
208.4499138187377
208.49000888325133
173.34653763465818
147.00196711492643
128.4998139724693
116.34421491523331
108.87453507054667
104.57655443905257
102.25639031190691
101.07819809105406
100.51366286940423
100.25757326972986
100.14721971948923
100.10191261766137
100.08419417616352
100.07776769921408
100.07618435888426
100.07776769875348
100.08419417474894
100.10191264587044
100.1472197934726
100.25757306348345
100.51366303032658
101.07819889433694
102.2563901099144
104.57655752540941
108.8745312470802
116.34421868869785
128.4998032677021
147.0019702277114
173.34657138930413
208.49000861325572
208.58789988408995
173.44796626454732
147.10618672651063
128.60613170896983
116.45203261125761
108.98337112066324
104.68604653184605
102.36628330429139
101.18832350488135
100.62391619057833
100.36789347116311
100.25757318468636
100.21228182898263
100.19457045169595
100.18814686757885
100.18656429795473
100.18814686711838
100.19457045028196
100.21228185718134
100.25757325864609
100.36789326497481
100.62391635146169
101.18832430799641
102.36628310233974
104.68604961770524
108.98336729775484
116.45203638423553
128.6061210054725
147.1061898389553
173.44800001570815
208.5878996141134
208.81559595460354
173.6838709711519
147.34852680495945
128.853269337683
116.70256449895531
109.23617901410938
104.94029987845146
102.62140596168538
101.44394144707961
100.87980168036711
100.62391615709956
100.51366275092853
100.46840241878378
100.45070468681944
100.44428659354935
100.44270547055774
100.4442865930893
100.45070468540655
100.46840244696224
100.51366282484135
100.6239159510292
100.87980184116945
101.44394224983976
102.6214057598205
104.94030296322185
109.23617519243781
116.70256827083838
128.85325863707376
147.34852991662254
173.68390471425164
208.8155956846734
209.31865816296178
174.20502502408294
147.88377478151588
129.3989363239236
117.25552610177675
109.79397143267398
105.50111676620594
103.18401313296879
102.00755120226054
101.44394321074783
101.18832523588996
101.07819973754175
101.03299758739314
101.01532496351383
101.00891680498725
101.00733827138406
101.00891680452787
101.01532496210315
101.03299761553393
101.07819981136551
101.18832503004725
101.44394337139076
102.00755200430768
103.18401293127903
105.50111984871423
109.79396761360522
117.25552987131957
129.39892562955225
147.88377789147444
174.20505874947204
209.31865789313986
210.3707611861679
175.2948748328074
149.00284618605951
130.53943063092538
118.41086428506375
110.95901962718717
106.67215936375236
104.3585492739589
103.1840112587227
102.62140584642397
102.36628315559307
102.25639007847701
102.21129170568113
102.19366306798018
102.18727203924504
102.18569792499694
102.18727203878703
102.19366306657325
102.21129173375516
102.25639015213989
102.36628295016764
102.62140600676888
103.18401205941196
104.35854907260423
106.67216244180794
110.95901581330601
118.41086804987052
130.53941994930963
149.00284929249818
175.29490852136055
210.37076091658264
212.44669346860218
177.4451138198231
151.21025971262742
132.7884210739758
120.6883739549331
113.25496358686536
108.9793302454873
106.6721662465601
105.50112179054905
104.94030666146942
104.68605328399212
104.57656110790998
104.53163867032656
104.51408336885713
104.50772048167902
104.5061535591092
104.50772048122309
104.51408336745635
104.53163869828813
104.57656118129725
104.68605307929204
104.94030682128678
105.50112258878951
106.67216604581233
108.9793333152584
113.25495978275234
120.68837771068777
132.78841041698342
151.21026281220503
177.44514743608192
212.44669319950472
216.2991084050306
181.43512092201104
155.3055234151998
136.95963747688714
124.91119167167197
117.51076018597628
113.25495626649658
110.95901913710718
109.7939690832546
109.23617840872801
108.98337048197793
108.87453434789501
108.82989530650359
108.81245635573549
108.80613752148575
108.80458175975025
108.80613752103305
108.81245635434425
108.8298953342851
108.87453442083398
108.98337027847401
109.23617856766113
109.79396987732063
110.9590189373975
113.25495932172562
117.51075639920346
124.91119541112975
136.95962686464594
155.30552650219144
181.43515440478822
216.29910813687223
223.00509575734435
188.38013343149885
162.43240943966902
144.21682712608137
132.256125930385
124.91119105230148
120.68836607035159
118.41086317548334
117.25552314794527
116.70256327401502
116.45203135315045
116.3442135738919
116.30000829797925
116.28274504776464
116.27649194961671
116.27495271417362
116.27649194916891
116.28274504638773
116.30000832548676
116.34421364613858
116.4520311515157
116.70256343154534
117.25552393528822
118.41086297745088
120.68836910153222
124.91118729450068
132.25612964225766
144.21681659024927
162.43241250498366
188.38016668300588
223.00509549087428
233.93294182177306
199.69678441123668
174.04348660758802
156.03750156690927
144.2168262375794
136.95963596996467
132.78841238812555
130.53942863433326
129.39893250612306
128.85326722581732
128.60612956417125
128.49981174551922
128.45623763691597
128.43922708191667
128.4330675566865
128.4315516888859
128.43306755624533
128.4392270805602
128.45623766402684
128.49981181675085
128.6061293653061
128.85326738124243
129.3989332832403
130.53942843885855
132.78841538186538
136.9596322576805
144.21682990560973
156.03749115345659
174.04348963790991
199.69681728744155
233.9329415581293
250.5853478838524
216.9407602566836
191.73360320861576
174.04348543753377
162.43240738341208
155.30552074336805
151.21024998898505
149.00284302648845
147.88376983400536
147.34852353051107
147.10618341950436
147.0019637272924
146.95926352457852
146.94259944899875
146.9365671213665
146.93508284005424
146.93656712093448
146.94259944767015
146.95926355114207
147.00196379710982
147.1061832245327
147.3485236829447
147.88377059642724
149.00284283469747
151.21025292784776
155.30551709831252
162.43241098604494
174.04347520783094
191.7336061860404
216.94079256301268
250.58534762461022
274.3175981525757
241.51504498965704
216.94082471639928
199.6968488675637
188.38019777314327
181.43518512546802
177.4451714200458
175.29493897219479
174.20508749604997
173.6839351077357
173.4480303855588
173.34660168418293
173.30505449888292
173.288843993325
173.28297702444968
173.28153362008413
173.2829770240297
173.2888439920328
173.30505452472704
173.346601752125
173.4480301957872
173.68393525613882
174.20508823849516
175.2949387854204
177.44517428311707
181.4351815738387
188.38020128416773
199.69683889662127
216.9408276189219
241.51507648614637
274.317597899712
305.99712138946256
274.3175399736075
250.58535046111862
233.93294334338435
223.00509647531194
216.29910856270183
212.44668700473883
210.370760902403
209.31865620169432
208.81559556760078
208.58789946720805
208.49000839096306
208.449913637742
208.43427109261052
208.42861009166614
208.42721742636004
208.42861009126085
208.43427109136366
208.44991366268155
208.49000845653327
208.5878992840478
208.8155957108463
209.31865691840082
210.37076072210044
212.4466897689877
216.29910513345425
223.00509986561698
233.93293371478163
250.58535326413605
274.3175703913663
305.9971211452157
