# vtk DataFile Version 2.0
Unstructured Grid Example
ASCII
DATASET UNSTRUCTURED_GRID

POINTS 961 float
0.100000001 0.00499999989 0
0.0966666639 0.00499999989 0
0.0933333337 0.00499999989 0
0.0900000036 0.00499999989 0
0.086666666 0.00499999989 0
0.0833333358 0.00499999989 0
0.0799999982 0.00499999989 0
0.0766666681 0.00499999989 0
0.0733333305 0.00499999989 0
0.0700000003 0.00499999989 0
0.0666666701 0.00499999989 0
0.0633333325 0.00499999989 0
0.0599999987 0.00499999989 0
0.0566666685 0.00499999989 0
0.0533333346 0.00499999989 0
0.0500000007 0.00499999989 0
0.0466666669 0.00499999989 0
0.043333333 0.00499999989 0
0.0399999991 0.00499999989 0
0.0366666652 0.00499999989 0
0.0333333351 0.00499999989 0
0.0299999993 0.00499999989 0
0.0266666673 0.00499999989 0
0.0233333334 0.00499999989 0
0.0199999996 0.00499999989 0
0.0166666675 0.00499999989 0
0.0133333337 0.00499999989 0
0.00999999978 0.00499999989 0
0.00666666683 0.00499999989 0
0.00333333341 0.00499999989 0
0.0 0.00499999989 0
0.100000001 0.00166666671 0
0.0966666639 0.00166666671 0
0.0933333337 0.00166666671 0
0.0900000036 0.00166666671 0
0.086666666 0.00166666671 0
0.0833333358 0.00166666671 0
0.0799999982 0.00166666671 0
0.0766666681 0.00166666671 0
0.0733333305 0.00166666671 0
0.0700000003 0.00166666671 0
0.0666666701 0.00166666671 0
0.0633333325 0.00166666671 0
0.0599999987 0.00166666671 0
0.0566666685 0.00166666671 0
0.0533333346 0.00166666671 0
0.0500000007 0.00166666671 0
0.0466666669 0.00166666671 0
0.043333333 0.00166666671 0
0.0399999991 0.00166666671 0
0.0366666652 0.00166666671 0
0.0333333351 0.00166666671 0
0.0299999993 0.00166666671 0
0.0266666673 0.00166666671 0
0.0233333334 0.00166666671 0
0.0199999996 0.00166666671 0
0.0166666675 0.00166666671 0
0.0133333337 0.00166666671 0
0.00999999978 0.00166666671 0
0.00666666683 0.00166666671 0
0.00333333341 0.00166666671 0
0.0 0.00166666671 0
0.100000001 -0.00166666671 0
0.0966666639 -0.00166666671 0
0.0933333337 -0.00166666671 0
0.0900000036 -0.00166666671 0
0.086666666 -0.00166666671 0
0.0833333358 -0.00166666671 0
0.0799999982 -0.00166666671 0
0.0766666681 -0.00166666671 0
0.0733333305 -0.00166666671 0
0.0700000003 -0.00166666671 0
0.0666666701 -0.00166666671 0
0.0633333325 -0.00166666671 0
0.0599999987 -0.00166666671 0
0.0566666685 -0.00166666671 0
0.0533333346 -0.00166666671 0
0.0500000007 -0.00166666671 0
0.0466666669 -0.00166666671 0
0.043333333 -0.00166666671 0
0.0399999991 -0.00166666671 0
0.0366666652 -0.00166666671 0
0.0333333351 -0.00166666671 0
0.0299999993 -0.00166666671 0
0.0266666673 -0.00166666671 0
0.0233333334 -0.00166666671 0
0.0199999996 -0.00166666671 0
0.0166666675 -0.00166666671 0
0.0133333337 -0.00166666671 0
0.00999999978 -0.00166666671 0
0.00666666683 -0.00166666671 0
0.00333333341 -0.00166666671 0
0.0 -0.00166666671 0
0.100000001 -0.00499999989 0
0.0966666639 -0.00499999989 0
0.0933333337 -0.00499999989 0
0.0900000036 -0.00499999989 0
0.086666666 -0.00499999989 0
0.0833333358 -0.00499999989 0
0.0799999982 -0.00499999989 0
0.0766666681 -0.00499999989 0
0.0733333305 -0.00499999989 0
0.0700000003 -0.00499999989 0
0.0666666701 -0.00499999989 0
0.0633333325 -0.00499999989 0
0.0599999987 -0.00499999989 0
0.0566666685 -0.00499999989 0
0.0533333346 -0.00499999989 0
0.0500000007 -0.00499999989 0
0.0466666669 -0.00499999989 0
0.043333333 -0.00499999989 0
0.0399999991 -0.00499999989 0
0.0366666652 -0.00499999989 0
0.0333333351 -0.00499999989 0
0.0299999993 -0.00499999989 0
0.0266666673 -0.00499999989 0
0.0233333334 -0.00499999989 0
0.0199999996 -0.00499999989 0
0.0166666675 -0.00499999989 0
0.0133333337 -0.00499999989 0
0.00999999978 -0.00499999989 0
0.00666666683 -0.00499999989 0
0.00333333341 -0.00499999989 0
0.0 -0.00499999989 0
0.100000001 -0.00833333377 0
0.0966666639 -0.00833333377 0
0.0933333337 -0.00833333377 0
0.0900000036 -0.00833333377 0
0.086666666 -0.00833333377 0
0.0833333358 -0.00833333377 0
0.0799999982 -0.00833333377 0
0.0766666681 -0.00833333377 0
0.0733333305 -0.00833333377 0
0.0700000003 -0.00833333377 0
0.0666666701 -0.00833333377 0
0.0633333325 -0.00833333377 0
0.0599999987 -0.00833333377 0
0.0566666685 -0.00833333377 0
0.0533333346 -0.00833333377 0
0.0500000007 -0.00833333377 0
0.0466666669 -0.00833333377 0
0.043333333 -0.00833333377 0
0.0399999991 -0.00833333377 0
0.0366666652 -0.00833333377 0
0.0333333351 -0.00833333377 0
0.0299999993 -0.00833333377 0
0.0266666673 -0.00833333377 0
0.0233333334 -0.00833333377 0
0.0199999996 -0.00833333377 0
0.0166666675 -0.00833333377 0
0.0133333337 -0.00833333377 0
0.00999999978 -0.00833333377 0
0.00666666683 -0.00833333377 0
0.00333333341 -0.00833333377 0
0.0 -0.00833333377 0
0.100000001 -0.0116666667 0
0.0966666639 -0.0116666667 0
0.0933333337 -0.0116666667 0
0.0900000036 -0.0116666667 0
0.086666666 -0.0116666667 0
0.0833333358 -0.0116666667 0
0.0799999982 -0.0116666667 0
0.0766666681 -0.0116666667 0
0.0733333305 -0.0116666667 0
0.0700000003 -0.0116666667 0
0.0666666701 -0.0116666667 0
0.0633333325 -0.0116666667 0
0.0599999987 -0.0116666667 0
0.0566666685 -0.0116666667 0
0.0533333346 -0.0116666667 0
0.0500000007 -0.0116666667 0
0.0466666669 -0.0116666667 0
0.043333333 -0.0116666667 0
0.0399999991 -0.0116666667 0
0.0366666652 -0.0116666667 0
0.0333333351 -0.0116666667 0
0.0299999993 -0.0116666667 0
0.0266666673 -0.0116666667 0
0.0233333334 -0.0116666667 0
0.0199999996 -0.0116666667 0
0.0166666675 -0.0116666667 0
0.0133333337 -0.0116666667 0
0.00999999978 -0.0116666667 0
0.00666666683 -0.0116666667 0
0.00333333341 -0.0116666667 0
0.0 -0.0116666667 0
0.100000001 -0.0149999997 0
0.0966666639 -0.0149999997 0
0.0933333337 -0.0149999997 0
0.0900000036 -0.0149999997 0
0.086666666 -0.0149999997 0
0.0833333358 -0.0149999997 0
0.0799999982 -0.0149999997 0
0.0766666681 -0.0149999997 0
0.0733333305 -0.0149999997 0
0.0700000003 -0.0149999997 0
0.0666666701 -0.0149999997 0
0.0633333325 -0.0149999997 0
0.0599999987 -0.0149999997 0
0.0566666685 -0.0149999997 0
0.0533333346 -0.0149999997 0
0.0500000007 -0.0149999997 0
0.0466666669 -0.0149999997 0
0.043333333 -0.0149999997 0
0.0399999991 -0.0149999997 0
0.0366666652 -0.0149999997 0
0.0333333351 -0.0149999997 0
0.0299999993 -0.0149999997 0
0.0266666673 -0.0149999997 0
0.0233333334 -0.0149999997 0
0.0199999996 -0.0149999997 0
0.0166666675 -0.0149999997 0
0.0133333337 -0.0149999997 0
0.00999999978 -0.0149999997 0
0.00666666683 -0.0149999997 0
0.00333333341 -0.0149999997 0
0.0 -0.0149999997 0
0.100000001 -0.0183333326 0
0.0966666639 -0.0183333326 0
0.0933333337 -0.0183333326 0
0.0900000036 -0.0183333326 0
0.086666666 -0.0183333326 0
0.0833333358 -0.0183333326 0
0.0799999982 -0.0183333326 0
0.0766666681 -0.0183333326 0
0.0733333305 -0.0183333326 0
0.0700000003 -0.0183333326 0
0.0666666701 -0.0183333326 0
0.0633333325 -0.0183333326 0
0.0599999987 -0.0183333326 0
0.0566666685 -0.0183333326 0
0.0533333346 -0.0183333326 0
0.0500000007 -0.0183333326 0
0.0466666669 -0.0183333326 0
0.043333333 -0.0183333326 0
0.0399999991 -0.0183333326 0
0.0366666652 -0.0183333326 0
0.0333333351 -0.0183333326 0
0.0299999993 -0.0183333326 0
0.0266666673 -0.0183333326 0
0.0233333334 -0.0183333326 0
0.0199999996 -0.0183333326 0
0.0166666675 -0.0183333326 0
0.0133333337 -0.0183333326 0
0.00999999978 -0.0183333326 0
0.00666666683 -0.0183333326 0
0.00333333341 -0.0183333326 0
0.0 -0.0183333326 0
0.100000001 -0.0216666665 0
0.0966666639 -0.0216666665 0
0.0933333337 -0.0216666665 0
0.0900000036 -0.0216666665 0
0.086666666 -0.0216666665 0
0.0833333358 -0.0216666665 0
0.0799999982 -0.0216666665 0
0.0766666681 -0.0216666665 0
0.0733333305 -0.0216666665 0
0.0700000003 -0.0216666665 0
0.0666666701 -0.0216666665 0
0.0633333325 -0.0216666665 0
0.0599999987 -0.0216666665 0
0.0566666685 -0.0216666665 0
0.0533333346 -0.0216666665 0
0.0500000007 -0.0216666665 0
0.0466666669 -0.0216666665 0
0.043333333 -0.0216666665 0
0.0399999991 -0.0216666665 0
0.0366666652 -0.0216666665 0
0.0333333351 -0.0216666665 0
0.0299999993 -0.0216666665 0
0.0266666673 -0.0216666665 0
0.0233333334 -0.0216666665 0
0.0199999996 -0.0216666665 0
0.0166666675 -0.0216666665 0
0.0133333337 -0.0216666665 0
0.00999999978 -0.0216666665 0
0.00666666683 -0.0216666665 0
0.00333333341 -0.0216666665 0
0.0 -0.0216666665 0
0.100000001 -0.0250000004 0
0.0966666639 -0.0250000004 0
0.0933333337 -0.0250000004 0
0.0900000036 -0.0250000004 0
0.086666666 -0.0250000004 0
0.0833333358 -0.0250000004 0
0.0799999982 -0.0250000004 0
0.0766666681 -0.0250000004 0
0.0733333305 -0.0250000004 0
0.0700000003 -0.0250000004 0
0.0666666701 -0.0250000004 0
0.0633333325 -0.0250000004 0
0.0599999987 -0.0250000004 0
0.0566666685 -0.0250000004 0
0.0533333346 -0.0250000004 0
0.0500000007 -0.0250000004 0
0.0466666669 -0.0250000004 0
0.043333333 -0.0250000004 0
0.0399999991 -0.0250000004 0
0.0366666652 -0.0250000004 0
0.0333333351 -0.0250000004 0
0.0299999993 -0.0250000004 0
0.0266666673 -0.0250000004 0
0.0233333334 -0.0250000004 0
0.0199999996 -0.0250000004 0
0.0166666675 -0.0250000004 0
0.0133333337 -0.0250000004 0
0.00999999978 -0.0250000004 0
0.00666666683 -0.0250000004 0
0.00333333341 -0.0250000004 0
0.0 -0.0250000004 0
0.100000001 -0.0283333343 0
0.0966666639 -0.0283333343 0
0.0933333337 -0.0283333343 0
0.0900000036 -0.0283333343 0
0.086666666 -0.0283333343 0
0.0833333358 -0.0283333343 0
0.0799999982 -0.0283333343 0
0.0766666681 -0.0283333343 0
0.0733333305 -0.0283333343 0
0.0700000003 -0.0283333343 0
0.0666666701 -0.0283333343 0
0.0633333325 -0.0283333343 0
0.0599999987 -0.0283333343 0
0.0566666685 -0.0283333343 0
0.0533333346 -0.0283333343 0
0.0500000007 -0.0283333343 0
0.0466666669 -0.0283333343 0
0.043333333 -0.0283333343 0
0.0399999991 -0.0283333343 0
0.0366666652 -0.0283333343 0
0.0333333351 -0.0283333343 0
0.0299999993 -0.0283333343 0
0.0266666673 -0.0283333343 0
0.0233333334 -0.0283333343 0
0.0199999996 -0.0283333343 0
0.0166666675 -0.0283333343 0
0.0133333337 -0.0283333343 0
0.00999999978 -0.0283333343 0
0.00666666683 -0.0283333343 0
0.00333333341 -0.0283333343 0
0.0 -0.0283333343 0
[...]
POINT_DATA 961
SCALARS Temp float 1
LOOKUP_TABLE default
284.64128318866716
252.7954816027671
230.1036189907689
215.23141905460045
206.27288284341802
201.30505327499984
198.7602082242798
197.55037109509874
197.01375229591596
196.7904558792237
196.70280323700425
196.6701753169562
196.6586035750017
196.65468358180726
196.6534371465939
196.65315632183484
196.65343714651073
196.65468358152117
196.65860358180805
196.67017533768313
196.7028031713748
196.79045593866348
197.01375264185765
197.55037100574765
198.76020995401836
201.3050509062484
206.27288550332537
215.2314108548697
230.10362159907635
252.7955114501907
284.64128289189114
252.79551363508023
219.8411270633668
196.3580553306491
180.96615810300653
171.69372583120798
166.55128893237267
163.9166957579601
162.6640402610834
162.10836090947024
161.8771045449124
161.78631631359002
161.75251722793055
161.74052877078543
161.7364671790812
161.73517559627248
161.73488458073362
161.7351755961864
161.7364671787847
161.7405287778372
161.75251724940253
161.78631624560876
161.87710460647457
162.10836126771693
162.6640401685563
163.91669754879362
166.55128648019289
171.69372858444078
180.96614961630118
196.3580580299753
219.84115795061018
252.7955133280105
230.10362320730752
196.35802574805857
172.30774287611348
156.54103577737422
147.04054645045838
141.77017817941268
139.0692243421067
137.78460493234005
137.21455867736103
136.97724479793598
136.88404804772267
136.84934126717167
136.8370270746712
136.83285390915032
136.83152649765233
136.83122735589387
136.8315264975636
136.8328539088456
136.83702708191527
136.84934128922265
136.88404797792745
136.97724486112023
137.21455904491754
137.78460483741426
139.06922617830074
141.77017566576353
147.04054927174445
156.54102708283102
172.30774564083544
196.3580573790051
230.10362289296677
215.23141120041748
180.96611550205043
156.54102290979574
140.5246306112669
130.87070242721998
125.51327788300208
122.76660584268738
121.45968015288469
120.87947639594914
120.63782429787115
120.54288091550104
120.50750793738375
120.4949519345537
120.49069505446829
120.48934050558023
120.48903516976176
120.48934050548982
120.49069505415727
120.49495194194101
120.50750795986154
120.54288084438252
120.63782436222398
120.87947677012116
121.45968005625856
122.76660771030589
125.51327532720592
130.87070529452
140.52462177748654
156.541025717862
180.96614762289252
215.23141088137575
206.27288593672932
171.6936942426344
147.04054514930414
130.8707143058954
121.12133666680957
115.70899334757091
112.93303635307046
111.61159170211481
111.02466811049706
110.78009933995301
110.68396307614779
110.64812819940146
110.63540212353034
110.63108557079319
110.62971144793339
110.62940160893204
110.6297114478416
110.63108557047761
110.63540213101923
110.64812822217675
110.68396300411892
110.78009940509713
111.02466848907348
111.6115916043598
112.93303824095804
115.70899076493579
121.12133956290849
130.87070538595745
147.04054798384325
171.69372666041855
206.27288561491005
201.30505221812794
166.55125286998017
141.77017245163285
125.51328533398886
115.70898880772285
110.26453135462457
107.471142717234
106.14089210906587
105.54981388321512
105.30340698402588
105.20650473381582
105.17036785291405
105.15752864922364
105.15317175951769
105.15178421573843
105.15147125973407
105.15178421564568
105.15317175919917
105.1575286567803
105.17036787588505
105.20650466119689
105.30340704967305
105.5498142645354
106.14089201060989
107.4711446172853
110.26452875612243
115.70899172050892
125.51327636478122
141.770175301088
166.55128545361322
201.30505189480874
198.76021029895594
163.91666284582155
139.0692219257012
122.76661669913067
112.93303521953548
107.47114615958832
104.66810747123965
103.33287862549383
102.7394002864404
102.49190813176838
102.39454381980858
102.35822092937815
102.34531064597682
102.34092793300101
102.33953165400331
102.33921664683392
102.33953165391009
102.3409279326806
102.34531065357648
102.3582209524706
102.39454374683021
102.49190819771577
102.73940066935957
103.33287852663112
104.6681093780865
107.47114355236856
112.93303814128909
122.76660770382739
139.0692247829318
163.9166955150797
198.76020997489383
197.55037156008555
162.6640056384399
137.7846008012187
121.45968928385716
111.61158880681691
106.14089378565544
103.33287684722919
101.9950212246076
101.40024630522036
101.15215368875302
101.0545275668969
101.01809680036828
101.00514435996891
101.00074600379283
100.99934433318876
100.99902804418937
100.99934433309517
101.0007460034712
101.00514436759438
101.01809682353175
101.05452749371244
101.15215375486827
101.40024668901162
101.99502112552382
103.33287875761629
106.14089117397458
111.61159173305293
121.45968027570844
137.78460366221435
162.66403834873995
197.55037123568457
197.01375306380635
162.1083265808738
137.21455486547026
120.879485860485
111.02466554467156
105.54981589521077
102.73939884206091
101.40024664151841
100.80481565193806
100.55641135693958
100.45864581126341
100.42215612472692
100.40918008618007
100.40477276667637
100.40336794218098
100.40305089304069
100.40336794208717
100.40477276635406
100.40918009382
100.4221561479296
100.45864573796771
100.55641142314313
100.80481603617515
101.40024654232218
102.73940075417248
105.54981328139695
111.02466847299954
120.87947684643478
137.21455772816748
162.10835930953033
197.01375273926197
196.7904562252594
161.87706977121292
136.97724053669629
120.63783330861305
110.78009631148048
105.30340853154857
102.49190621960929
101.15215355693839
100.55641088807832
100.30785454961173
100.21001913383508
100.17349911665495
100.16051060626977
100.15609842876108
100.15469185620962
100.1543743795011
100.15469185611563
100.15609842843834
100.16051061391748
100.173499139878
100.21001906048294
100.30785461585883
100.55641127252949
101.15215345768841
102.49190813250902
105.30340591677853
110.78009924072404
120.63782429202001
136.9772434001152
161.87710250757183
196.7904559006585
196.7028035136694
161.78628146477564
136.88404371226392
120.54288985209669
110.68395997115516
105.20650620483526
102.39454183019298
101.05452735772644
100.45864526483781
100.21001905633095
100.11215063126032
100.07561587909632
100.06262113997646
100.05820647077914
100.05679898010537
100.05648127529939
100.05679898001137
100.0582064704562
100.06262114762802
100.07561590232923
100.11215055788102
100.21001912259837
100.45864564938573
101.05452725845232
102.39454374343171
105.20650358966151
110.68396290077625
120.54288083447122
136.88404657597135
161.78631420418273
196.70280318904787
196.67017565946196
161.7524824460949
136.84933700156705
120.50751694572733
110.64812516652837
105.1703693969
102.35821901286054
101.0180966646339
100.42215565181088
100.17349911276895
100.0756159527549
100.0390744332087
100.02607675082766
100.02166087124075
100.02025292341696
100.01993510318621
100.02025292332297
100.02166087091757
100.02607675848111
100.0390744564463
100.07561587936343
100.17349917904534
100.42215603640015
101.01809656534955
102.35822092623721
105.17036678156506
110.64812809629679
120.50750792770499
136.84933986538383
161.7525151866454
196.6701753348329
196.658603907727
161.74049397838144
136.8370227986018
120.49496093243735
110.63539907985829
105.15753018241395
102.34530871851868
101.00514421331143
100.40917960230676
100.160510591438
100.06262120269027
100.02607673987544
100.01307774011357
100.00866130333094
100.00725313970098
100.00693526408135
100.00725313960686
100.00866130300776
100.01307774776782
100.02607676311494
100.0626211292934
100.16051065771802
100.40917998691275
101.00514411402291
102.34531063194844
105.15752756701784
110.63540200968137
120.4949519142698
136.83702566245805
161.74052671934052
196.65860358309544
196.6546839087164
161.7364323805023
136.83284962686912
120.49070404608798
110.63108252069947
105.15317328626118
102.34092599902624
101.0007458506142
100.40477227626275
100.15609840739005
100.0582065269524
100.02166085374387
100.00866129678596
100.00424461773768
100.00283635792984
100.00251845722701
100.0028363578357
100.00424461741447
100.00866130444066
100.02166087698431
100.05820645355328
100.1560984736715
100.40477266087528
101.00074575132406
102.34092791247541
105.153170670843
110.63108545054187
120.49069502786988
136.83285249073884
161.73646512160073
196.654683584084
196.65343747418842
161.73514079835624
136.83152221609402
120.48934949796082
110.62970839858805
105.15178574324818
102.33952972078836
100.999344180779
100.40336745253552
100.15469183561027
100.0567990370517
100.02025290669259
100.00725313392866
100.00283635870268
100.00142805986393
100.00111014883687
100.00142805976988
100.00283635837947
100.00725314158345
100.02025292993336
100.05679896365177
100.15469190189224
100.40336783715023
100.99934408148837
102.33953163424425
105.15178312782271
110.62971132843683
120.48934047972625
136.83152507996823
161.73517353949924
196.65343714955577
196.65315664982907
161.7348497832208
136.83122307476003
120.48904416258083
110.62939856002622
105.15147278769027
102.33921471406575
100.9990278922297
100.40305040384563
100.15437435935357
100.05648133269794
100.01993508691413
100.00693525876137
100.00251845845214
100.00111014928929
100.00079223550662
100.00111014919528
100.00251845812902
100.00693526641624
100.0199351101549
100.05648125929797
100.15437442563568
100.40305078846087
100.99902779293875
102.3392166275232
105.15147017226309
110.62940148987646
120.48903514434245
136.83122593863527
161.734882524374
196.65315632519653
196.65343747441628
161.73514079859237
136.83152221633685
120.48934949820853
110.62970839883944
105.15178574350207
102.33952972104379
100.9993441810355
100.40336745279258
100.15469183586764
100.05679903730915
100.02025290695013
100.00725313418633
100.00283635896028
100.00142806012158
100.0011101490945
100.0014280600275
100.00283635863715
100.00725314184102
100.0202529301909
100.05679896390926
100.15469190214957
100.40336783740719
100.99934408174472
102.33953163449969
105.15178312807654
110.62971132868826
120.489340479974
136.831525080211
161.7351735397355
196.6534371497838
196.65468390941126
161.7364323812224
136.83284962760905
120.49070404684295
110.6310825214651
105.15317328703402
102.34092599980379
101.00074585139468
100.40477227704491
100.15609840817291
100.05820652773579
100.02166085452743
100.00866129756973
100.00424461852147
100.00283635871364
100.00251845801073
100.00283635861958
100.00424461819821
100.00866130522436
100.02166087776784
100.05820645433673
100.15609847445435
100.40477266165726
101.0007457521045
102.34092791325298
105.1531706716159
110.63108545130757
120.49069502862484
136.83285249147886
161.73646512232094
196.65468358477912
196.65860390979466
161.74049398052378
136.8370228008026
120.49496093468157
110.63539908213335
105.15753018470954
102.3453087208273
101.00514421562778
100.40917960462745
100.16051059376103
100.0626212050145
100.02607674220019
100.01307774243854
100.00866130565592
100.00725314202607
100.00693526640646
100.00725314193201
100.00866130533288
100.0130777500928
100.0260767654397
100.06262113161762
100.16051066004106
100.40917998923345
101.00514411633921
102.34531063425698
105.15752756931342
110.63540201195642
120.49495191651411
136.83702566465888
161.74052672148287
196.6586035851632
196.67017566596672
161.75248245283342
136.84933700848737
120.50751695278153
110.64812517367572
105.1703694041087
102.35821902010731
101.0180966719028
100.42215565909204
100.17349912005643
100.0756159600456
100.03907444050077
100.02607675812031
100.0216608785336
100.0202529307099
100.01993511047914
100.02025293061585
100.0216608782105
100.02607676577374
100.03907446373826
100.07561588665382
100.1734991863328
100.42215604368126
101.01809657261838
102.35822093348379
105.17036678877372
110.64812810344412
120.50750793475916
136.84933987230423
161.75251519338408
196.67017534133785
196.70280356251686
161.78628151537285
136.88404376420985
120.5428899050252
110.68396002475895
105.20650625887568
102.394541884499
101.05452741218444
100.45864531937745
100.210019110912
100.11215068586118
100.07561593370612
100.06262119459004
100.05820652539425
100.05679903472097
100.0564813299152
100.05679903462696
100.05820652507126
100.06262120224153
100.0756159569389
100.1121506124818
100.21001917717945
100.45864570392537
101.05452731291021
102.39454379773758
105.2065036437019
110.68396295438001
120.54288088739983
136.88404662791731
161.78631425477988
196.70280323789535
196.79045619238897
161.8770697371679
136.9772405017517
120.63783327301849
110.78009627544408
105.30340849522997
102.49190618312171
101.15215352035553
100.55641085144511
100.30785451295337
100.21001909716503
100.1734990799797
100.16051056959226
100.15609839208274
100.1546918195308
100.15437434282232
100.15469181943679
100.15609839175993
100.16051057723993
100.17349910320253
100.21001902381276
100.30785457920054
100.55641123589615
101.15215342110547
102.49190809602125
105.30340588045998
110.78009920468766
120.63782425642547
136.97724336517066
161.87710247352697
196.79045586778818
197.0137533623709
162.1083268900595
137.2145551826943
120.87948618342385
111.02466587141745
105.5498162243298
102.73939917256403
101.40024697277721
100.8048159835836
100.55641168877095
100.45864614317888
100.42215645667845
100.40918041814605
100.40477309864806
100.40336827415454
100.40305122501468
100.40336827406077
100.40477309832562
100.40918042578598
100.42215647988094
100.4586460698831
100.55641175497438
100.80481636782058
101.40024687358098
102.7394010846758
105.5498136105161
111.02466879974527
120.87947716937356
137.2145580453917
162.10835961871618
197.0137530378267
197.55037136377038
162.66400543515823
137.78460059269935
121.4596890716472
111.61158859217561
106.14089356951796
103.33287663023198
101.99502100714876
101.4002460875295
101.15215347095254
101.05452734904762
101.01809658249844
101.005144142091
101.00074578591186
100.99934411530673
100.999027826307
100.99934411521313
101.0007457855902
101.00514414971639
101.0180966056619
101.05452727586304
101.15215353706772
101.4002464713207
101.99502090806506
103.33287854061923
106.1408909578371
111.61159151841159
121.45968006349855
137.78460345369507
162.66403814545836
197.55037103936937
198.76021232919504
163.916664947774
139.0692240809065
122.766618891237
112.93303743545049
107.47114838979633
104.66810970943602
103.33288086785409
102.73940253082993
102.4919103770857
102.39454606552523
102.3582231752573
102.34531289191864
102.34093017896595
102.339533899976
102.33921889280849
102.3395338998828
102.34093017864555
102.34531289951839
102.35822319834968
102.39454599254677
102.49191044303295
102.73940291374906
103.33288076899136
104.66811161628286
107.47114578257663
112.93304035720412
122.76660989593385
139.06922693813718
163.91669761703216
198.76021200513298
201.3050532651538
166.5512539538292
141.770173562507
125.51328646329523
115.70898994869032
110.26453250243391
107.47114386877129
106.14089326249429
105.54981503753977
105.30340813874882
105.20650588870564
105.17036900786995
105.15752980420443
105.15317291450732
105.15178537073093
105.15147241472727
105.15178537063838
105.15317291418884
105.15752981176104
105.17036903084087
105.20650581608672
105.30340820439598
105.54981541885998
106.14089316403833
107.47114576882252
110.26452990393184
115.70899286147659
125.51327749408783
141.77017641196224
166.55128653746235
201.30505294183456
206.2728823390173
171.69369051863447
147.04054133309884
130.8707104272398
121.12133274898545
115.7089894069956
112.9330324002362
111.61158774313569
111.02466414864168
110.7800953768353
110.68395911250813
110.64812423555765
110.6353981596105
110.63108160684635
110.62970748397761
110.62939764497429
110.62970748388595
110.63108160653084
110.63539816709931
110.64812425833274
110.6839590404791
110.7800954419793
111.02466452721802
111.61158764538051
112.93303428812376
115.70898682436037
121.1213356450845
130.87070150730207
147.04054416763813
171.69372293641877
206.27288201719804
215.23141777663125
180.9661223083608
156.54102988263708
140.5246376955726
130.87070958042503
125.51328507556183
122.76661305606673
121.45968737650064
120.87948362426314
120.63783152820706
120.54288814665735
120.50751516885511
120.49495916614013
120.49070228609476
120.48934773721992
120.48904240140442
120.48934773712949
120.4907022857838
120.49495917352753
120.50751519133287
120.54288807553866
120.63783159255976
120.87948399843485
121.45968727987426
122.76661492368515
125.51328251976567
130.87071244772505
140.52462886179237
156.5410326907033
180.9661544292028
215.23141745758946
230.10361659609467
196.35801890603028
172.30773586803085
156.5410286590449
147.04053926466452
141.77017095553012
139.0692170983313
137.78459767891556
137.21455141956957
136.9772375382908
136.8840407873357
136.84933400650343
136.83701981390152
136.83284664834562
136.8315192368362
136.83122009507534
136.83151923674765
136.83284664804071
136.83701982114545
136.84933402855435
136.8840407175405
136.97723760147488
137.21455178712577
137.78459758398947
139.06921893452503
141.77016844188094
147.0405420859506
156.5410199645018
172.30773863275286
196.3580505369771
230.10361628175423
252.7955386237499
219.84115292258244
196.35808181248376
180.96618499496108
171.6937529717372
166.55131621172623
163.91672310897968
162.6640676464504
162.10838831019774
161.87713195208408
161.78634372331146
161.7525446386086
161.74055618180535
161.73649459021757
161.73520300744622
161.73491199191565
161.73520300735996
161.73649458992102
161.74055618885694
161.7525446600805
161.78634365533023
161.87713201364608
162.10838866844406
162.6640675539229
163.916724899813
166.5513137595464
171.69375572496998
180.96617650825596
196.35808451180964
219.8411838098248
252.79553831668025
284.6412830098412
252.79548141775638
230.10361880142426
215.23141886248155
206.2728826496793
201.3050530803968
198.7602080292537
197.55037089988164
197.0137521006187
196.79045568389503
196.70280304166403
196.67017512161166
196.65860337965617
196.65468338646156
196.6534369512477
196.65315612648857
196.65343695116448
196.65468338617518
196.65860338646243
196.67017514233882
196.7028029760346
196.79045574333472
197.01375244656003
197.55037081052998
198.760209758992
201.30505071164518
206.27288530958657
215.2314106627506
230.10362140973143
252.79551126517984
284.64128271306515
