# vtk DataFile Version 2.0
Unstructured Grid Example
ASCII
DATASET UNSTRUCTURED_GRID

POINTS 961 float
0.100000001 0.00499999989 0
0.0966666639 0.00499999989 0
0.0933333337 0.00499999989 0
0.0900000036 0.00499999989 0
0.086666666 0.00499999989 0
0.0833333358 0.00499999989 0
0.0799999982 0.00499999989 0
0.0766666681 0.00499999989 0
0.0733333305 0.00499999989 0
0.0700000003 0.00499999989 0
0.0666666701 0.00499999989 0
0.0633333325 0.00499999989 0
0.0599999987 0.00499999989 0
0.0566666685 0.00499999989 0
0.0533333346 0.00499999989 0
0.0500000007 0.00499999989 0
0.0466666669 0.00499999989 0
0.043333333 0.00499999989 0
0.0399999991 0.00499999989 0
0.0366666652 0.00499999989 0
0.0333333351 0.00499999989 0
0.0299999993 0.00499999989 0
0.0266666673 0.00499999989 0
0.0233333334 0.00499999989 0
0.0199999996 0.00499999989 0
0.0166666675 0.00499999989 0
0.0133333337 0.00499999989 0
0.00999999978 0.00499999989 0
0.00666666683 0.00499999989 0
0.00333333341 0.00499999989 0
0.0 0.00499999989 0
0.100000001 0.00166666671 0
0.0966666639 0.00166666671 0
0.0933333337 0.00166666671 0
0.0900000036 0.00166666671 0
0.086666666 0.00166666671 0
0.0833333358 0.00166666671 0
0.0799999982 0.00166666671 0
0.0766666681 0.00166666671 0
0.0733333305 0.00166666671 0
0.0700000003 0.00166666671 0
0.0666666701 0.00166666671 0
0.0633333325 0.00166666671 0
0.0599999987 0.00166666671 0
0.0566666685 0.00166666671 0
0.0533333346 0.00166666671 0
0.0500000007 0.00166666671 0
0.0466666669 0.00166666671 0
0.043333333 0.00166666671 0
0.0399999991 0.00166666671 0
0.0366666652 0.00166666671 0
0.0333333351 0.00166666671 0
0.0299999993 0.00166666671 0
0.0266666673 0.00166666671 0
0.0233333334 0.00166666671 0
0.0199999996 0.00166666671 0
0.0166666675 0.00166666671 0
0.0133333337 0.00166666671 0
0.00999999978 0.00166666671 0
0.00666666683 0.00166666671 0
0.00333333341 0.00166666671 0
0.0 0.00166666671 0
0.100000001 -0.00166666671 0
0.0966666639 -0.00166666671 0
0.0933333337 -0.00166666671 0
0.0900000036 -0.00166666671 0
0.086666666 -0.00166666671 0
0.0833333358 -0.00166666671 0
0.0799999982 -0.00166666671 0
0.0766666681 -0.00166666671 0
0.0733333305 -0.00166666671 0
0.0700000003 -0.00166666671 0
0.0666666701 -0.00166666671 0
0.0633333325 -0.00166666671 0
0.0599999987 -0.00166666671 0
0.0566666685 -0.00166666671 0
0.0533333346 -0.00166666671 0
0.0500000007 -0.00166666671 0
0.0466666669 -0.00166666671 0
0.043333333 -0.00166666671 0
0.0399999991 -0.00166666671 0
0.0366666652 -0.00166666671 0
0.0333333351 -0.00166666671 0
0.0299999993 -0.00166666671 0
0.0266666673 -0.00166666671 0
0.0233333334 -0.00166666671 0
0.0199999996 -0.00166666671 0
0.0166666675 -0.00166666671 0
0.0133333337 -0.00166666671 0
0.00999999978 -0.00166666671 0
0.00666666683 -0.00166666671 0
0.00333333341 -0.00166666671 0
0.0 -0.00166666671 0
0.100000001 -0.00499999989 0
0.0966666639 -0.00499999989 0
0.0933333337 -0.00499999989 0
0.0900000036 -0.00499999989 0
0.086666666 -0.00499999989 0
0.0833333358 -0.00499999989 0
0.0799999982 -0.00499999989 0
0.0766666681 -0.00499999989 0
0.0733333305 -0.00499999989 0
0.0700000003 -0.00499999989 0
0.0666666701 -0.00499999989 0
0.0633333325 -0.00499999989 0
0.0599999987 -0.00499999989 0
0.0566666685 -0.00499999989 0
0.0533333346 -0.00499999989 0
0.0500000007 -0.00499999989 0
0.0466666669 -0.00499999989 0
0.043333333 -0.00499999989 0
0.0399999991 -0.00499999989 0
0.0366666652 -0.00499999989 0
0.0333333351 -0.00499999989 0
0.0299999993 -0.00499999989 0
0.0266666673 -0.00499999989 0
0.0233333334 -0.00499999989 0
0.0199999996 -0.00499999989 0
0.0166666675 -0.00499999989 0
0.0133333337 -0.00499999989 0
0.00999999978 -0.00499999989 0
0.00666666683 -0.00499999989 0
0.00333333341 -0.00499999989 0
0.0 -0.00499999989 0
0.100000001 -0.00833333377 0
0.0966666639 -0.00833333377 0
0.0933333337 -0.00833333377 0
0.0900000036 -0.00833333377 0
0.086666666 -0.00833333377 0
0.0833333358 -0.00833333377 0
0.0799999982 -0.00833333377 0
0.0766666681 -0.00833333377 0
0.0733333305 -0.00833333377 0
0.0700000003 -0.00833333377 0
0.0666666701 -0.00833333377 0
0.0633333325 -0.00833333377 0
0.0599999987 -0.00833333377 0
0.0566666685 -0.00833333377 0
0.0533333346 -0.00833333377 0
0.0500000007 -0.00833333377 0
0.0466666669 -0.00833333377 0
0.043333333 -0.00833333377 0
0.0399999991 -0.00833333377 0
0.0366666652 -0.00833333377 0
0.0333333351 -0.00833333377 0
0.0299999993 -0.00833333377 0
0.0266666673 -0.00833333377 0
0.0233333334 -0.00833333377 0
0.0199999996 -0.00833333377 0
0.0166666675 -0.00833333377 0
0.0133333337 -0.00833333377 0
0.00999999978 -0.00833333377 0
0.00666666683 -0.00833333377 0
0.00333333341 -0.00833333377 0
0.0 -0.00833333377 0
0.100000001 -0.0116666667 0
0.0966666639 -0.0116666667 0
0.0933333337 -0.0116666667 0
0.0900000036 -0.0116666667 0
0.086666666 -0.0116666667 0
0.0833333358 -0.0116666667 0
0.0799999982 -0.0116666667 0
0.0766666681 -0.0116666667 0
0.0733333305 -0.0116666667 0
0.0700000003 -0.0116666667 0
0.0666666701 -0.0116666667 0
0.0633333325 -0.0116666667 0
0.0599999987 -0.0116666667 0
0.0566666685 -0.0116666667 0
0.0533333346 -0.0116666667 0
0.0500000007 -0.0116666667 0
0.0466666669 -0.0116666667 0
0.043333333 -0.0116666667 0
0.0399999991 -0.0116666667 0
0.0366666652 -0.0116666667 0
0.0333333351 -0.0116666667 0
0.0299999993 -0.0116666667 0
0.0266666673 -0.0116666667 0
0.0233333334 -0.0116666667 0
0.0199999996 -0.0116666667 0
0.0166666675 -0.0116666667 0
0.0133333337 -0.0116666667 0
0.00999999978 -0.0116666667 0
0.00666666683 -0.0116666667 0
0.00333333341 -0.0116666667 0
0.0 -0.0116666667 0
0.100000001 -0.0149999997 0
0.0966666639 -0.0149999997 0
0.0933333337 -0.0149999997 0
0.0900000036 -0.0149999997 0
0.086666666 -0.0149999997 0
0.0833333358 -0.0149999997 0
0.0799999982 -0.0149999997 0
0.0766666681 -0.0149999997 0
0.0733333305 -0.0149999997 0
0.0700000003 -0.0149999997 0
0.0666666701 -0.0149999997 0
0.0633333325 -0.0149999997 0
0.0599999987 -0.0149999997 0
0.0566666685 -0.0149999997 0
0.0533333346 -0.0149999997 0
0.0500000007 -0.0149999997 0
0.0466666669 -0.0149999997 0
0.043333333 -0.0149999997 0
0.0399999991 -0.0149999997 0
0.0366666652 -0.0149999997 0
0.0333333351 -0.0149999997 0
0.0299999993 -0.0149999997 0
0.0266666673 -0.0149999997 0
0.0233333334 -0.0149999997 0
0.0199999996 -0.0149999997 0
0.0166666675 -0.0149999997 0
0.0133333337 -0.0149999997 0
0.00999999978 -0.0149999997 0
0.00666666683 -0.0149999997 0
0.00333333341 -0.0149999997 0
0.0 -0.0149999997 0
0.100000001 -0.0183333326 0
0.0966666639 -0.0183333326 0
0.0933333337 -0.0183333326 0
0.0900000036 -0.0183333326 0
0.086666666 -0.0183333326 0
0.0833333358 -0.0183333326 0
0.0799999982 -0.0183333326 0
0.0766666681 -0.0183333326 0
0.0733333305 -0.0183333326 0
0.0700000003 -0.0183333326 0
0.0666666701 -0.0183333326 0
0.0633333325 -0.0183333326 0
0.0599999987 -0.0183333326 0
0.0566666685 -0.0183333326 0
0.0533333346 -0.0183333326 0
0.0500000007 -0.0183333326 0
0.0466666669 -0.0183333326 0
0.043333333 -0.0183333326 0
0.0399999991 -0.0183333326 0
0.0366666652 -0.0183333326 0
0.0333333351 -0.0183333326 0
0.0299999993 -0.0183333326 0
0.0266666673 -0.0183333326 0
0.0233333334 -0.0183333326 0
0.0199999996 -0.0183333326 0
0.0166666675 -0.0183333326 0
0.0133333337 -0.0183333326 0
0.00999999978 -0.0183333326 0
0.00666666683 -0.0183333326 0
0.00333333341 -0.0183333326 0
0.0 -0.0183333326 0
0.100000001 -0.0216666665 0
0.0966666639 -0.0216666665 0
0.0933333337 -0.0216666665 0
0.0900000036 -0.0216666665 0
0.086666666 -0.0216666665 0
0.0833333358 -0.0216666665 0
0.0799999982 -0.0216666665 0
0.0766666681 -0.0216666665 0
0.0733333305 -0.0216666665 0
0.0700000003 -0.0216666665 0
0.0666666701 -0.0216666665 0
0.0633333325 -0.0216666665 0
0.0599999987 -0.0216666665 0
0.0566666685 -0.0216666665 0
0.0533333346 -0.0216666665 0
0.0500000007 -0.0216666665 0
0.0466666669 -0.0216666665 0
0.043333333 -0.0216666665 0
0.0399999991 -0.0216666665 0
0.0366666652 -0.0216666665 0
0.0333333351 -0.0216666665 0
0.0299999993 -0.0216666665 0
0.0266666673 -0.0216666665 0
0.0233333334 -0.0216666665 0
0.0199999996 -0.0216666665 0
0.0166666675 -0.0216666665 0
0.0133333337 -0.0216666665 0
0.00999999978 -0.0216666665 0
0.00666666683 -0.0216666665 0
0.00333333341 -0.0216666665 0
0.0 -0.0216666665 0
0.100000001 -0.0250000004 0
0.0966666639 -0.0250000004 0
0.0933333337 -0.0250000004 0
0.0900000036 -0.0250000004 0
0.086666666 -0.0250000004 0
0.0833333358 -0.0250000004 0
0.0799999982 -0.0250000004 0
0.0766666681 -0.0250000004 0
0.0733333305 -0.0250000004 0
0.0700000003 -0.0250000004 0
0.0666666701 -0.0250000004 0
0.0633333325 -0.0250000004 0
0.0599999987 -0.0250000004 0
0.0566666685 -0.0250000004 0
0.0533333346 -0.0250000004 0
0.0500000007 -0.0250000004 0
0.0466666669 -0.0250000004 0
0.043333333 -0.0250000004 0
0.0399999991 -0.0250000004 0
0.0366666652 -0.0250000004 0
0.0333333351 -0.0250000004 0
0.0299999993 -0.0250000004 0
0.0266666673 -0.0250000004 0
0.0233333334 -0.0250000004 0
0.0199999996 -0.0250000004 0
0.0166666675 -0.0250000004 0
0.0133333337 -0.0250000004 0
0.00999999978 -0.0250000004 0
0.00666666683 -0.0250000004 0
0.00333333341 -0.0250000004 0
0.0 -0.0250000004 0
0.100000001 -0.0283333343 0
0.0966666639 -0.0283333343 0
0.0933333337 -0.0283333343 0
0.0900000036 -0.0283333343 0
0.086666666 -0.0283333343 0
0.0833333358 -0.0283333343 0
0.0799999982 -0.0283333343 0
0.0766666681 -0.0283333343 0
0.0733333305 -0.0283333343 0
0.0700000003 -0.0283333343 0
0.0666666701 -0.0283333343 0
0.0633333325 -0.0283333343 0
0.0599999987 -0.0283333343 0
0.0566666685 -0.0283333343 0
0.0533333346 -0.0283333343 0
0.0500000007 -0.0283333343 0
0.0466666669 -0.0283333343 0
0.043333333 -0.0283333343 0
0.0399999991 -0.0283333343 0
0.0366666652 -0.0283333343 0
0.0333333351 -0.0283333343 0
0.0299999993 -0.0283333343 0
0.0266666673 -0.0283333343 0
0.0233333334 -0.0283333343 0
0.0199999996 -0.0283333343 0
0.0166666675 -0.0283333343 0
0.0133333337 -0.0283333343 0
0.00999999978 -0.0283333343 0
0.00666666683 -0.0283333343 0
0.00333333341 -0.0283333343 0
0.0 -0.0283333343 0
[...]
POINT_DATA 961
SCALARS Temp float 1
LOOKUP_TABLE default
324.5635314899435
293.1387379168746
268.77570418293993
250.87400521621672
238.42688100126927
230.24306352059102
225.15435540104073
222.1596236204095
220.48937564004217
219.60503661900066
219.15964573750512
218.94582488657784
218.84783626500402
218.80510940941397
218.78800611619266
218.7835103289665
218.788006114888
218.80510940573632
218.84783632881837
218.9458250360097
219.15964535782334
219.60503688429168
220.48937682681358
222.1596233291054
225.1543591969297
230.24305913084336
238.42688498151995
250.873994539916
268.7757071215229
293.1387686055549
324.5635312954101
293.1387707321083
260.58569574619014
235.34741126432314
216.8020837175977
203.9070064753032
195.42832678886668
190.1560325419916
187.0531028111684
185.32241548835805
184.40602313568013
183.94446119015083
183.72286343010245
183.6213045741951
183.57701828620483
183.559289813571
183.55462953159218
183.5592898122186
183.57701828239271
183.62130464033635
183.722863584973
183.94446079667054
184.40602341059503
185.3224167181036
187.05310250932067
190.15603647491392
195.42832224083233
203.90701059887004
216.8020726572494
235.34741430851525
260.58572753704567
293.1387705306218
268.77570878957886
235.34738112788125
209.42908000889403
190.3826670630914
177.13795698511208
168.42844219545736
163.0119352036791
159.82369243920337
158.0451562912074
157.10327960509161
156.62880391180622
156.40096777180102
156.29653206165887
156.25098369102832
156.23274728944102
156.22795303386675
156.2327472880497
156.250983687107
156.29653212967844
156.40096793104172
156.62880350728057
157.1032798876746
158.04515755503627
159.82369212900318
163.01193924442586
168.42843752325362
177.1379612206875
190.382655703348
209.4290831352186
235.3474137743959
268.7757085827625
250.8739947695559
216.80203731314123
190.38265095187526
170.96600005773664
157.46208703103767
148.58076152279327
143.05643295373812
139.80408865699602
137.9894087054999
137.02817383109485
136.54383184554777
136.31120137150245
136.2045416823504
136.15801206687956
136.13937877352296
136.1344794976295
136.13937877210103
136.15801206287296
136.20454175182527
136.31120153410947
136.54383143255612
137.0281741195194
137.9894099951355
139.8040883404816
143.0564370752789
148.5807567579207
157.46209134979767
170.96598847638663
190.38265413880006
216.80207058951967
250.87399455888303
238.42688533736424
203.90697491633358
177.13795653731216
157.46210322045786
143.77596668859718
134.77326165168574
129.17233456118927
125.87417104646254
124.03348502049654
123.05822473025947
122.56668301546911
122.33052837487975
122.22222194491465
122.17496062367236
122.15602953185832
122.15105114631596
122.15602953041379
122.17496061960195
122.22222201547059
122.33052853996814
122.56668259627537
123.05822502293121
124.0334863287554
125.87417072540057
129.17233874028528
134.77325682112675
143.77597106596474
157.46209148362155
177.13795976658974
203.90700863163977
238.42688512406198
230.24306112503177
195.42828794647085
168.42843453991105
148.5807705082706
134.77325420426342
125.68922827746592
120.03664344407494
116.70735456335323
114.84886398103416
113.86392219710196
113.36736817462102
113.12873872237988
113.01926580950403
112.97148180889496
112.95233641897953
112.9473008399294
112.95233641751825
112.97148180477875
113.01926588082846
113.12873888921669
113.3673677510891
113.86392249271793
114.84886530208753
116.70735423917442
120.03664766211195
125.6892234027255
134.77325862077006
148.5807586681053
168.42843779720522
195.42832195113206
230.24306091004124
225.15435944022826
190.15600017370244
163.01193437022437
143.05644898901224
129.17233417005713
120.03665060834176
114.35100432877132
111.00162933234019
109.13154597368774
108.14024078774689
107.6403599571809
107.40007143925743
107.28980868145294
107.24166732319382
107.22237416923456
107.21729894230013
107.22237416776187
107.24166731904603
107.28980875329998
107.40007160727106
107.64035953075408
108.14024108530747
109.13154730310555
111.00162900612949
114.35100857182363
120.03664570541041
129.1723386113358
143.05643708381282
163.0119376450607
190.15603435882812
225.15435922421733
222.15962416515137
187.05306670845215
159.82368786973737
139.80410093620605
125.87416679220225
116.70735785424777
111.00162541042904
107.63993489286233
105.76267280212652
104.76738557019317
104.26540006506873
104.02405016138039
103.91327639649612
103.86490130846288
103.84551058467099
103.84040902058116
103.84551058319052
103.86490130429425
103.91327646868277
104.02405033015015
104.2653996367992
104.76738586897714
105.76267413674736
107.63993456539191
111.00162966874161
116.70735293424686
125.87417124834691
139.80408899221888
159.82369115497687
187.0531010001362
222.15962394855896
220.4893773753583
185.32238055565438
158.0451529806558
137.98942230031034
124.03348206999466
114.84886860329262
109.13154337690007
105.76267414069976
103.88118236546592
102.8835219900659
102.38026714499186
102.13826923145032
102.02717960957843
101.9786583119187
101.95920591116943
101.95408758884243
101.9592059096841
101.97865830773684
102.02717968197597
102.13826940068367
102.38026671560355
102.88352228958325
103.88118370316742
105.76267381248613
109.13154764405954
114.84886367347588
124.03348653460631
137.98941033437788
158.04515627174592
185.3224149069825
220.48937715845312
219.60503691750074
184.40598668028522
157.10327475959895
137.02818587618566
123.05822019098355
113.86392522305803
108.14023657642707
104.7673852924242
102.88352036820686
101.88451218587667
101.38052717472473
101.13815157051957
101.02687538946643
100.97826661086341
100.95877688832257
100.95364835343237
100.95877688683423
100.97826660667377
101.02687546198929
101.13815174002464
101.38052674468821
101.88451248581325
102.88352170764593
104.76738496379319
108.1402408484657
113.86392028787405
123.05822466017841
137.02817389845748
157.10327805381402
184.4060210633126
219.60503670043647
219.15964565923687
183.94442432718932
156.62879866245567
136.54384348680355
122.56667805776056
113.36737078197962
107.6403553201652
104.2653993621466
102.38026509591407
101.38052674800106
100.87614082959003
100.63355494921599
100.52217343008347
100.47351457465624
100.45400323081884
100.44886873526906
100.45400322932886
100.47351457046206
100.52217350267757
100.63355511887315
100.87614039919481
101.38052704816626
102.38026643628784
104.2653990332921
107.64035959476725
113.36736584400101
122.56668252931726
136.54383150304116
156.62880195825892
183.9444587262445
219.1596454420961
218.94582521033752
183.72282697553953
156.40096294961825
136.31121345300454
122.33052385987361
113.12874177909382
107.40006725256595
104.02404991193353
102.13826763654836
101.13815159924862
100.63355540524023
100.39085763270064
100.27941923282388
100.23073294730006
100.2112096117014
100.2060717845156
100.21120961021052
100.2307329431033
100.27941930545668
100.39085780243926
100.63355497465545
101.13815189953287
102.13826897740203
104.02404958296486
107.40007152845288
113.12873683972727
122.33052833259069
136.3112014662991
156.4009662461911
183.72286138232013
218.94582499316147
218.8478365295035
183.62126805442543
156.29652717578972
136.20455370074575
122.22221736390232
113.01926880049193
107.28980442757191
103.91327608013587
102.02717794734265
101.02687535104462
100.52217381899403
100.27941916557657
100.16795141466123
100.11925076708982
100.09972107271706
100.09458146499162
100.09972107122555
100.11925076289167
100.167951487314
100.27941933535678
100.52217338831336
101.02687565138808
102.02717928843155
103.91327575111154
107.28980870407348
113.01926386046742
122.22222183716379
136.20454171266994
156.29653047271862
183.6213024647605
218.84783631231213
218.80510961703098
183.5769817058179
156.25097874428485
136.15802402394053
122.17495597950165
112.97148473646465
107.24166300496692
103.86490092770755
101.9786565849822
100.97826650775976
100.47351489886461
100.23073281526538
100.11925070229125
100.07054292661735
100.0510100372826
100.04586952813773
100.05101003579082
100.07054292241854
100.11925077495397
100.23073298506577
100.47351446813809
100.9782668081311
101.97865792618063
103.8649005986573
107.24166728174798
112.9714797961437
122.17496045300592
136.1580120352579
156.25098204137026
183.57701611770898
218.80510939983316
218.7880063318981
183.55925324090134
156.2327423512239
136.1393907396374
122.15602489653213
112.95233935566934
107.22236986000655
103.84551021306578
101.9592041933624
100.95877679442124
100.45400356425861
100.21120948888165
100.09972101713922
100.05101004650886
100.03147570991673
100.02633478979871
100.0314757084249
100.05101004230966
100.09972108980631
100.211209658691
100.45400313351213
100.9587770948045
101.95920553460722
103.84550988400468
107.22237413690375
112.95233441522628
122.1560293701358
136.13937875070863
156.23274564837263
183.55928765341739
218.78800611469785
218.78351055096056
183.55459296526573
156.22794810233032
136.13449147066163
122.15104651792547
112.94730378368187
107.21729464013907
103.84040865610831
101.95408587817776
100.95364826670287
100.44886907589436
100.20607166887994
100.09458141660123
100.0458695445538
100.02633479698889
100.02119375970872
100.02633479549696
100.04586954035457
100.09458148926944
100.20607183869168
100.44886864514227
100.95364856708949
101.95408721943534
103.84040832704419
107.21729891706758
112.94729884320603
122.15105099155554
136.1344794816676
156.22795139949574
183.55462737794645
218.7835103337598
218.78800633509866
183.55925324421895
156.23274235463663
136.13939074312444
122.15602490007505
112.95233935925246
107.22236986361729
103.84551021669482
101.9592041970029
100.9587767980688
100.45400356791018
100.21120949253539
100.09972102079418
100.05101005016445
100.03147571357256
100.02633479345457
100.03147571208069
100.05101004596537
100.0997210934613
100.2112096623447
100.45400313716365
100.95877709845212
101.95920553824776
103.84550988763364
107.22237414051443
112.95233441880934
122.15602937367862
136.13937875419577
156.23274565178542
183.5592876567352
218.78800611789862
218.80510962519023
183.57698171427504
156.25097875298349
136.15802403282723
122.17495598852881
112.97148474559252
107.24166301416362
103.86490093694944
101.97865659425258
100.97826651704715
100.47351490816179
100.23073282456788
100.11925071159645
100.07054293592411
100.05101004658994
100.04586953744526
100.05101004509828
100.07054293172531
100.11925078425935
100.23073299436827
100.47351447743512
100.97826681741843
101.97865793545088
103.86490060789914
107.24166729094482
112.97147980527149
122.17496046203321
136.15801204414467
156.25098205006898
183.57701612616628
218.80510940799252
218.84783654845435
183.62126807406705
156.29652719598892
136.2045537213766
122.22221738485362
113.01926882167089
107.28980444890536
103.91327610156979
102.02717796883873
101.02687537257765
100.52217384054796
100.27941918714188
100.16795143623234
100.11925078866379
100.0997210942923
100.0945814865672
100.09972109280086
100.11925078446579
100.16795150888517
100.27941935692203
100.52217340986729
101.02687567292098
102.02717930992755
103.91327577254528
107.28980872540701
113.01926388164632
122.22222185811522
136.20454173330086
156.29653049291792
183.62130248440232
218.84783633126295
218.9458252566197
183.72282702350594
156.40096299893776
136.311213503366
122.33052391100266
113.12874183076353
107.40006730459957
104.02404996420056
102.13826768895859
101.13815165174259
100.6335554577811
100.3908576852665
100.27941928540255
100.23073299988488
100.21120966428896
100.20607183710376
100.211209662798
100.23073299568814
100.27941935803526
100.39085785500507
100.63355502719622
101.13815195202683
102.13826902981211
104.02404963523185
107.40007158048623
113.12873689139705
122.33052838371975
136.31120151666047
156.40096629551073
183.7228614302865
218.94582503944366
219.1596459341334
183.94442461207407
156.62879895533163
136.54384378579994
122.56667836123681
113.36737108858607
107.6403556288581
104.26539967216573
102.38026540673727
101.38052705928926
100.87614114113505
100.63355526089659
100.52217374183249
100.47351488643787
100.45400354261464
100.44886904706873
100.45400354112459
100.47351488224362
100.5221738144265
100.63355543055366
100.87614071073978
101.38052735945446
102.38026674711092
104.2653993433112
107.6403599034601
113.36736615060751
122.56668283279342
136.54383180203754
156.62880225113483
183.9444590111292
219.1596457169927
219.6050367612519
184.40598651836575
157.10327459315593
137.02818570629134
123.05822001857504
113.86392504890287
108.14023640111542
104.76738511638283
102.88352019172669
101.88451200914494
101.38052699785518
101.138151393578
101.02687521248899
100.97826643386898
100.9587767113206
100.95364817642836
100.95877670983226
100.97826642967925
101.02687528501178
101.13815156308291
101.38052656781855
101.88451230908146
102.88352153116585
104.76738478775185
108.1402406731541
113.86392011371893
123.05822448776996
137.0281737285632
157.10327788737095
184.40602090139325
219.60503654418775
220.4893784079659
185.32238162565588
158.04515408031799
137.9894234224343
124.03348320833146
114.84886975277061
109.13154453366336
105.7626753019962
103.88118352944723
102.88352315556199
102.38026831130288
102.13827039817994
102.02718077651326
101.97865947894917
101.95920707824041
101.95408875592443
101.959207076755
101.97865947476726
102.02718084891079
102.13827056741326
102.38026788191448
102.88352345507924
103.8811848671487
105.76267497378264
109.13154880082288
114.84886482295377
124.03348767294304
137.98941145650207
158.04515737140812
185.3224159769838
220.48937819106092
222.15962358888768
187.05306611134438
159.82368725614515
139.8041003101795
125.87416615724496
116.7073572131887
111.0016247654065
107.63993424539237
105.76267215321884
104.76738492048126
104.26539941492821
104.02404951102187
103.91327574603154
103.86490065794948
103.84550993413704
103.84040837004166
103.84550993265674
103.8649006537809
103.9132758182182
104.0240496797915
104.26539898665864
104.76738521926517
105.76267348783962
107.63993391792194
111.00162902371932
116.70735229318778
125.87417061338961
139.8040883661926
159.8236905413849
187.0531004030286
222.15962337229539
225.15436391545973
190.15600481049748
163.01193913415585
143.0564538482193
129.17233909714548
120.03665558136527
114.35100933130867
111.00163435288607
109.13155100467614
108.14024582449582
107.64036499695708
107.40007648055126
107.2898137234731
107.24167236554433
107.22237921172236
107.2173039848248
107.22237921024958
107.24167236139654
107.28981379532013
107.40007664856472
107.6403645705301
108.14024612205617
109.13155233409393
111.00163402667555
114.35101357436102
120.03665067843413
129.1723435384241
143.0564419430202
163.01194240899224
190.15603899562305
225.15436369944908
230.24306292178926
195.4282898079868
168.42843645216774
148.5807724583371
134.77325618108034
125.68923027223612
120.03664545027242
116.70735657645173
114.84886599809005
113.86392421631567
113.367370194955
113.12874074326866
113.01926783065507
112.97148383016393
112.95233844029697
112.94730286125976
112.95233843883575
112.97148382604772
113.01926790197957
113.1287409101055
113.36736977142297
113.86392451193149
114.84886731914337
116.70735625227294
120.0366496683095
125.68922539749568
134.7732605975873
148.58076061817212
168.42843970946208
195.4283238126483
230.24306270679887
238.42687981905237
203.90696919929422
177.13795066489567
157.46209723258826
143.77596061933298
134.7732555280238
129.17232840306926
125.87416486764481
124.03347882987893
123.05821853324808
122.56667681515991
122.3305221729483
122.22221574222137
122.17495442063901
122.15602332868608
122.15104494310667
122.15602332724143
122.17495441656872
122.22221581277736
122.3305223380367
122.56667639596594
123.0582188259197
124.03348013813755
125.87416454658269
129.17233258216507
134.77325069746482
143.7759649967006
157.46208549575212
177.13795389417345
203.90700291460087
238.42687960575017
250.87400324762115
216.80204609616555
190.38265997260936
170.96600925439176
157.46209635110156
148.58077092485095
143.05644240738977
139.8040981414116
137.98941820731682
137.0281833422625
136.54384136149784
136.31121088978452
136.2045512017177
136.15802158672741
136.13938829356576
136.1344890177241
136.13938829214402
136.15802158272086
136.20455127119263
136.31121105239131
136.54384094850613
137.02818363068678
137.98941949695208
139.804097824897
143.05644652893042
148.58076615997848
157.46210066986166
170.96599767304207
190.38266315953433
216.8020793725438
250.8740030369484
268.775701239607
235.34737330656648
209.42907197654478
190.38265887502405
177.13794868820915
168.42843382655624
163.0119267896968
159.82368399848647
158.04514783545682
157.10327114131206
156.62879544394664
156.40095930196475
156.2965235909085
156.2509752198757
156.23273881812617
156.22794456250915
156.23273881673484
156.25097521595424
156.29652365892773
156.40095946120533
156.6287950394208
157.10327142389482
158.04514909928525
159.82368368828605
163.01193083044325
168.42842915435236
177.1379529237846
190.38264751528078
209.42907510286932
235.34740595308148
268.7757010327909
293.1387964014851
260.58572233746867
235.34743857129084
216.8021115513798
203.90703467618943
195.42835523174878
190.15606113579383
187.05313149407917
185.32244422114294
184.40605189497
183.94448996284112
183.72289220925157
183.62133335631583
183.57704706962625
183.55931859751465
183.55465831567344
183.55931859616223
183.57704706581396
183.62133342245693
183.72289236412203
183.94448956936074
184.4060521698846
185.32244545088815
187.05313119223118
190.15606506871583
195.42835068371434
203.90703879975595
216.80210049103155
235.34744161548264
260.58575412832346
293.1387961999988
324.56353138322464
293.1387378063434
268.7757040694906
250.87400510065953
238.42688088427832
230.24306340268245
225.1543552825788
222.15962350163372
220.48937552109837
219.60503649997156
219.15964561843538
218.94582476748928
218.84783614590748
218.80510929031416
218.78800599709143
218.78351020986491
218.78800599578673
218.8051092866362
218.84783620972183
218.94582491692108
219.1596452387533
219.60503676526272
220.48937670786935
222.15962321032936
225.15435907846776
230.24305901293448
238.426884864529
250.87399442435893
268.77570700807354
293.1387684950237
324.56353118869146
