# vtk DataFile Version 2.0
Unstructured Grid Example
ASCII
DATASET UNSTRUCTURED_GRID

POINTS 961 float
0.100000001 0.00499999989 0
0.0966666639 0.00499999989 0
0.0933333337 0.00499999989 0
0.0900000036 0.00499999989 0
0.086666666 0.00499999989 0
0.0833333358 0.00499999989 0
0.0799999982 0.00499999989 0
0.0766666681 0.00499999989 0
0.0733333305 0.00499999989 0
0.0700000003 0.00499999989 0
0.0666666701 0.00499999989 0
0.0633333325 0.00499999989 0
0.0599999987 0.00499999989 0
0.0566666685 0.00499999989 0
0.0533333346 0.00499999989 0
0.0500000007 0.00499999989 0
0.0466666669 0.00499999989 0
0.043333333 0.00499999989 0
0.0399999991 0.00499999989 0
0.0366666652 0.00499999989 0
0.0333333351 0.00499999989 0
0.0299999993 0.00499999989 0
0.0266666673 0.00499999989 0
0.0233333334 0.00499999989 0
0.0199999996 0.00499999989 0
0.0166666675 0.00499999989 0
0.0133333337 0.00499999989 0
0.00999999978 0.00499999989 0
0.00666666683 0.00499999989 0
0.00333333341 0.00499999989 0
0.0 0.00499999989 0
0.100000001 0.00166666671 0
0.0966666639 0.00166666671 0
0.0933333337 0.00166666671 0
0.0900000036 0.00166666671 0
0.086666666 0.00166666671 0
0.0833333358 0.00166666671 0
0.0799999982 0.00166666671 0
0.0766666681 0.00166666671 0
0.0733333305 0.00166666671 0
0.0700000003 0.00166666671 0
0.0666666701 0.00166666671 0
0.0633333325 0.00166666671 0
0.0599999987 0.00166666671 0
0.0566666685 0.00166666671 0
0.0533333346 0.00166666671 0
0.0500000007 0.00166666671 0
0.0466666669 0.00166666671 0
0.043333333 0.00166666671 0
0.0399999991 0.00166666671 0
0.0366666652 0.00166666671 0
0.0333333351 0.00166666671 0
0.0299999993 0.00166666671 0
0.0266666673 0.00166666671 0
0.0233333334 0.00166666671 0
0.0199999996 0.00166666671 0
0.0166666675 0.00166666671 0
0.0133333337 0.00166666671 0
0.00999999978 0.00166666671 0
0.00666666683 0.00166666671 0
0.00333333341 0.00166666671 0
0.0 0.00166666671 0
0.100000001 -0.00166666671 0
0.0966666639 -0.00166666671 0
0.0933333337 -0.00166666671 0
0.0900000036 -0.00166666671 0
0.086666666 -0.00166666671 0
0.0833333358 -0.00166666671 0
0.0799999982 -0.00166666671 0
0.0766666681 -0.00166666671 0
0.0733333305 -0.00166666671 0
0.0700000003 -0.00166666671 0
0.0666666701 -0.00166666671 0
0.0633333325 -0.00166666671 0
0.0599999987 -0.00166666671 0
0.0566666685 -0.00166666671 0
0.0533333346 -0.00166666671 0
0.0500000007 -0.00166666671 0
0.0466666669 -0.00166666671 0
0.043333333 -0.00166666671 0
0.0399999991 -0.00166666671 0
0.0366666652 -0.00166666671 0
0.0333333351 -0.00166666671 0
0.0299999993 -0.00166666671 0
0.0266666673 -0.00166666671 0
0.0233333334 -0.00166666671 0
0.0199999996 -0.00166666671 0
0.0166666675 -0.00166666671 0
0.0133333337 -0.00166666671 0
0.00999999978 -0.00166666671 0
0.00666666683 -0.00166666671 0
0.00333333341 -0.00166666671 0
0.0 -0.00166666671 0
0.100000001 -0.00499999989 0
0.0966666639 -0.00499999989 0
0.0933333337 -0.00499999989 0
0.0900000036 -0.00499999989 0
0.086666666 -0.00499999989 0
0.0833333358 -0.00499999989 0
0.0799999982 -0.00499999989 0
0.0766666681 -0.00499999989 0
0.0733333305 -0.00499999989 0
0.0700000003 -0.00499999989 0
0.0666666701 -0.00499999989 0
0.0633333325 -0.00499999989 0
0.0599999987 -0.00499999989 0
0.0566666685 -0.00499999989 0
0.0533333346 -0.00499999989 0
0.0500000007 -0.00499999989 0
0.0466666669 -0.00499999989 0
0.043333333 -0.00499999989 0
0.0399999991 -0.00499999989 0
0.0366666652 -0.00499999989 0
0.0333333351 -0.00499999989 0
0.0299999993 -0.00499999989 0
0.0266666673 -0.00499999989 0
0.0233333334 -0.00499999989 0
0.0199999996 -0.00499999989 0
0.0166666675 -0.00499999989 0
0.0133333337 -0.00499999989 0
0.00999999978 -0.00499999989 0
0.00666666683 -0.00499999989 0
0.00333333341 -0.00499999989 0
0.0 -0.00499999989 0
0.100000001 -0.00833333377 0
0.0966666639 -0.00833333377 0
0.0933333337 -0.00833333377 0
0.0900000036 -0.00833333377 0
0.086666666 -0.00833333377 0
0.0833333358 -0.00833333377 0
0.0799999982 -0.00833333377 0
0.0766666681 -0.00833333377 0
0.0733333305 -0.00833333377 0
0.0700000003 -0.00833333377 0
0.0666666701 -0.00833333377 0
0.0633333325 -0.00833333377 0
0.0599999987 -0.00833333377 0
0.0566666685 -0.00833333377 0
0.0533333346 -0.00833333377 0
0.0500000007 -0.00833333377 0
0.0466666669 -0.00833333377 0
0.043333333 -0.00833333377 0
0.0399999991 -0.00833333377 0
0.0366666652 -0.00833333377 0
0.0333333351 -0.00833333377 0
0.0299999993 -0.00833333377 0
0.0266666673 -0.00833333377 0
0.0233333334 -0.00833333377 0
0.0199999996 -0.00833333377 0
0.0166666675 -0.00833333377 0
0.0133333337 -0.00833333377 0
0.00999999978 -0.00833333377 0
0.00666666683 -0.00833333377 0
0.00333333341 -0.00833333377 0
0.0 -0.00833333377 0
0.100000001 -0.0116666667 0
0.0966666639 -0.0116666667 0
0.0933333337 -0.0116666667 0
0.0900000036 -0.0116666667 0
0.086666666 -0.0116666667 0
0.0833333358 -0.0116666667 0
0.0799999982 -0.0116666667 0
0.0766666681 -0.0116666667 0
0.0733333305 -0.0116666667 0
0.0700000003 -0.0116666667 0
0.0666666701 -0.0116666667 0
0.0633333325 -0.0116666667 0
0.0599999987 -0.0116666667 0
0.0566666685 -0.0116666667 0
0.0533333346 -0.0116666667 0
0.0500000007 -0.0116666667 0
0.0466666669 -0.0116666667 0
0.043333333 -0.0116666667 0
0.0399999991 -0.0116666667 0
0.0366666652 -0.0116666667 0
0.0333333351 -0.0116666667 0
0.0299999993 -0.0116666667 0
0.0266666673 -0.0116666667 0
0.0233333334 -0.0116666667 0
0.0199999996 -0.0116666667 0
0.0166666675 -0.0116666667 0
0.0133333337 -0.0116666667 0
0.00999999978 -0.0116666667 0
0.00666666683 -0.0116666667 0
0.00333333341 -0.0116666667 0
0.0 -0.0116666667 0
0.100000001 -0.0149999997 0
0.0966666639 -0.0149999997 0
0.0933333337 -0.0149999997 0
0.0900000036 -0.0149999997 0
0.086666666 -0.0149999997 0
0.0833333358 -0.0149999997 0
0.0799999982 -0.0149999997 0
0.0766666681 -0.0149999997 0
0.0733333305 -0.0149999997 0
0.0700000003 -0.0149999997 0
0.0666666701 -0.0149999997 0
0.0633333325 -0.0149999997 0
0.0599999987 -0.0149999997 0
0.0566666685 -0.0149999997 0
0.0533333346 -0.0149999997 0
0.0500000007 -0.0149999997 0
0.0466666669 -0.0149999997 0
0.043333333 -0.0149999997 0
0.0399999991 -0.0149999997 0
0.0366666652 -0.0149999997 0
0.0333333351 -0.0149999997 0
0.0299999993 -0.0149999997 0
0.0266666673 -0.0149999997 0
0.0233333334 -0.0149999997 0
0.0199999996 -0.0149999997 0
0.0166666675 -0.0149999997 0
0.0133333337 -0.0149999997 0
0.00999999978 -0.0149999997 0
0.00666666683 -0.0149999997 0
0.00333333341 -0.0149999997 0
0.0 -0.0149999997 0
0.100000001 -0.0183333326 0
0.0966666639 -0.0183333326 0
0.0933333337 -0.0183333326 0
0.0900000036 -0.0183333326 0
0.086666666 -0.0183333326 0
0.0833333358 -0.0183333326 0
0.0799999982 -0.0183333326 0
0.0766666681 -0.0183333326 0
0.0733333305 -0.0183333326 0
0.0700000003 -0.0183333326 0
0.0666666701 -0.0183333326 0
0.0633333325 -0.0183333326 0
0.0599999987 -0.0183333326 0
0.0566666685 -0.0183333326 0
0.0533333346 -0.0183333326 0
0.0500000007 -0.0183333326 0
0.0466666669 -0.0183333326 0
0.043333333 -0.0183333326 0
0.0399999991 -0.0183333326 0
0.0366666652 -0.0183333326 0
0.0333333351 -0.0183333326 0
0.0299999993 -0.0183333326 0
0.0266666673 -0.0183333326 0
0.0233333334 -0.0183333326 0
0.0199999996 -0.0183333326 0
0.0166666675 -0.0183333326 0
0.0133333337 -0.0183333326 0
0.00999999978 -0.0183333326 0
0.00666666683 -0.0183333326 0
0.00333333341 -0.0183333326 0
0.0 -0.0183333326 0
0.100000001 -0.0216666665 0
0.0966666639 -0.0216666665 0
0.0933333337 -0.0216666665 0
0.0900000036 -0.0216666665 0
0.086666666 -0.0216666665 0
0.0833333358 -0.0216666665 0
0.0799999982 -0.0216666665 0
0.0766666681 -0.0216666665 0
0.0733333305 -0.0216666665 0
0.0700000003 -0.0216666665 0
0.0666666701 -0.0216666665 0
0.0633333325 -0.0216666665 0
0.0599999987 -0.0216666665 0
0.0566666685 -0.0216666665 0
0.0533333346 -0.0216666665 0
0.0500000007 -0.0216666665 0
0.0466666669 -0.0216666665 0
0.043333333 -0.0216666665 0
0.0399999991 -0.0216666665 0
0.0366666652 -0.0216666665 0
0.0333333351 -0.0216666665 0
0.0299999993 -0.0216666665 0
0.0266666673 -0.0216666665 0
0.0233333334 -0.0216666665 0
0.0199999996 -0.0216666665 0
0.0166666675 -0.0216666665 0
0.0133333337 -0.0216666665 0
0.00999999978 -0.0216666665 0
0.00666666683 -0.0216666665 0
0.00333333341 -0.0216666665 0
0.0 -0.0216666665 0
0.100000001 -0.0250000004 0
0.0966666639 -0.0250000004 0
0.0933333337 -0.0250000004 0
0.0900000036 -0.0250000004 0
0.086666666 -0.0250000004 0
0.0833333358 -0.0250000004 0
0.0799999982 -0.0250000004 0
0.0766666681 -0.0250000004 0
0.0733333305 -0.0250000004 0
0.0700000003 -0.0250000004 0
0.0666666701 -0.0250000004 0
0.0633333325 -0.0250000004 0
0.0599999987 -0.0250000004 0
0.0566666685 -0.0250000004 0
0.0533333346 -0.0250000004 0
0.0500000007 -0.0250000004 0
0.0466666669 -0.0250000004 0
0.043333333 -0.0250000004 0
0.0399999991 -0.0250000004 0
0.0366666652 -0.0250000004 0
0.0333333351 -0.0250000004 0
0.0299999993 -0.0250000004 0
0.0266666673 -0.0250000004 0
0.0233333334 -0.0250000004 0
0.0199999996 -0.0250000004 0
0.0166666675 -0.0250000004 0
0.0133333337 -0.0250000004 0
0.00999999978 -0.0250000004 0
0.00666666683 -0.0250000004 0
0.00333333341 -0.0250000004 0
0.0 -0.0250000004 0
0.100000001 -0.0283333343 0
0.0966666639 -0.0283333343 0
0.0933333337 -0.0283333343 0
0.0900000036 -0.0283333343 0
0.086666666 -0.0283333343 0
0.0833333358 -0.0283333343 0
0.0799999982 -0.0283333343 0
0.0766666681 -0.0283333343 0
0.0733333305 -0.0283333343 0
0.0700000003 -0.0283333343 0
0.0666666701 -0.0283333343 0
0.0633333325 -0.0283333343 0
0.0599999987 -0.0283333343 0
0.0566666685 -0.0283333343 0
0.0533333346 -0.0283333343 0
0.0500000007 -0.0283333343 0
0.0466666669 -0.0283333343 0
0.043333333 -0.0283333343 0
0.0399999991 -0.0283333343 0
0.0366666652 -0.0283333343 0
0.0333333351 -0.0283333343 0
0.0299999993 -0.0283333343 0
0.0266666673 -0.0283333343 0
0.0233333334 -0.0283333343 0
0.0199999996 -0.0283333343 0
0.0166666675 -0.0283333343 0
0.0133333337 -0.0283333343 0
0.00999999978 -0.0283333343 0
0.00666666683 -0.0283333343 0
0.00333333341 -0.0283333343 0
0.0 -0.0283333343 0
[...]
POINT_DATA 961
SCALARS Temp float 1
LOOKUP_TABLE default
276.70109786331926
244.8375832414209
222.63696538892913
208.5286996743926
200.35190923014397
196.01762081840238
193.90609815589127
192.95493661748904
192.5561183059396
192.39942395890046
192.3413645621577
192.3209562727255
192.31411500332763
192.31192081274506
192.31125732409575
192.31111296732914
192.31125732405258
192.31192081258982
192.3141150072681
192.3209562854289
192.34136451984725
192.39942399952577
192.55611855741338
192.9549365518207
193.90609955858628
196.0176188137738
200.3519116111472
208.5286920647062
222.6369679124566
244.8376127911811
276.7010975536382
244.83761497108418
211.87366980274209
188.9047775601736
174.3069344072891
165.84544148164483
161.35966399698046
159.17403844680967
158.1893553917394
157.77642227732585
157.61415935098913
157.55402843130307
157.53288922310213
157.52580205576214
157.52352873395753
157.52284124561365
157.5226916564879
157.5228412455689
157.5235287337968
157.5258020598445
157.53288923626098
157.55402838748032
157.61415939306087
157.77642253771373
158.1893553237454
159.1740398988199
161.35966192211353
165.84544394568786
174.30692653302324
188.9047801711148
211.87370037399518
244.8376146507307
222.63696948754284
188.90474820654327
165.39645476611364
150.4522609035016
141.78748545982288
137.192407616502
134.95271702587615
133.94329570001398
133.51982698840968
133.35336130147945
133.2916502853784
133.26994792657578
133.26266950558562
133.2603340947492
133.25962762821925
133.25947387953352
133.25962762817315
133.2603340945838
133.26266950977862
133.2699479400868
133.29165024039665
133.3533613446481
133.5198272554799
133.9432956302803
134.95271851404246
137.1924054906139
141.78748798342724
150.4522528410599
165.39645743859276
188.9047794928421
222.63696915978736
208.52869242313798
174.30689281874797
150.4522488158025
135.28337002283152
126.48506410516087
121.81716954296525
119.54091263596256
118.51449873868185
118.08368088400515
117.91423934183713
117.8513933839366
117.82928102464602
117.82186158774846
117.81947985708818
117.8187590850009
117.81860217882549
117.81875908495388
117.81947985691937
117.82186159202324
117.82928103841463
117.85139333811712
117.91423938578744
118.0836811557638
118.51449866773133
119.54091414874523
121.81716738277237
126.48506666813047
135.28336183743642
150.4522515279403
174.30692456233717
208.52869209072014
200.3519120491552
165.8454100271091
141.7874840046932
126.48507500977388
117.60619136963606
112.89358700896636
110.59445489693945
109.55720385220694
109.12160784539118
108.95019479805264
108.88658327485189
108.86418959997721
108.85667184971553
108.85425734492843
108.85352631808546
108.8533671285445
108.85352631803778
108.85425734475726
108.85667185404779
108.86418961392351
108.88658322846267
108.95019484252512
109.12160812022036
109.55720378046239
110.59445642524973
112.8935848274681
117.60619395654018
126.48506675066577
141.78748674021335
165.84544203779149
200.35191171407533
196.0176199923255
161.35962861679613
137.1924022768748
121.81717656148489
112.89358303110438
108.15567207179765
105.8433091005424
104.79964707073644
104.36115946660753
104.18852637481646
104.12443077716955
104.10185554554602
104.0942731127427
104.09183665698362
104.09109865311268
104.09093789355641
104.09109865306446
104.09183665681087
104.09427311711305
104.10185555960793
104.12443073041644
104.18852641961523
104.3611597433112
104.79964699850886
105.84331063792139
108.155669878079
112.89358563140445
121.8171682617804
137.19240502503305
161.35966077030704
196.01761965586726
193.90609991328887
159.17400566547084
134.952714416573
119.54092245963302
110.59445372461639
105.84331193338595
103.52386518496603
102.47668359872407
102.03656743156085
101.8632295319635
101.79884729541338
101.77616198444625
101.76853944748125
101.76608909565073
101.7653465932469
101.7651848088967
101.76534659319856
101.76608909547691
101.7685394518754
101.77616199857874
101.79884724844247
101.86322957695305
102.03656770933081
102.47668352622316
103.52386672725332
105.84330973318411
110.59445633183509
119.54091413932635
134.95271717101883
159.17403788922365
193.90609957618045
192.95493706566012
158.18932122090507
133.9432916971147
118.51450715980236
109.5572012497868
104.79964847036501
102.47668215658544
101.427704421988
100.98673382336557
100.81301570935817
100.74847455233655
100.72572657441059
100.71808062397895
100.71562196582636
100.71487671788452
100.71471429932916
100.71487671783596
100.71562196565206
100.7180806283872
100.72572658858378
100.74847450524317
100.81301575445191
100.98673410170115
101.42770434934265
102.47668370133984
104.79964626697272
109.55720386031551
118.514498829818
133.9432944544551
158.18935347660926
192.95493672827087
192.55611896524667
157.776388310641
133.5198232078537
118.08368953757349
109.12160547234225
104.36116109965734
102.03656622177576
100.98673405730749
100.5453450483325
100.3714351617065
100.30681145415218
100.28402997421328
100.2763711557906
100.27390781194877
100.27316097906933
100.27299818873327
100.27316097902064
100.27390781177402
100.27637116020662
100.28402998840835
100.30681140699433
100.37143520685352
100.5453453269484
100.9867339845909
102.03656776768551
104.36115889480321
109.12160808434476
118.0836812033589
133.5198259664346
157.77642057987353
192.556118627745
192.39942431113911
157.61412506060546
133.35335719402397
117.91424766525685
108.95019208874547
104.1885276703295
101.86322798246175
100.81301560336264
100.37143482130445
100.19743431280232
100.13277037493901
100.10997206240181
100.10230658407825
100.09984074584354
100.09909304785475
100.09893005118856
100.09909304780605
100.09984074566857
100.10230658849832
100.10997207660802
100.13277032774924
100.1974343579749
100.37143510005035
100.81301553061313
101.86322952887771
104.18852546484895
108.95019470136198
117.9142393293115
133.35335995310288
157.61415733520445
192.39942397359584
192.34136486895116
157.553994091704
133.29164612931754
117.85140165880566
108.88658051547496
104.12443202262817
101.79884569526939
100.74847439576381
100.30681106305161
100.13277032427666
100.06808795444795
100.04528168212036
100.03761295498761
100.03514586311671
100.0343977186229
100.03423461357255
100.03439771857425
100.03514586294172
100.03761295940963
100.04528169633183
100.06808790724327
100.13277036946066
100.30681134185413
100.74847432300012
101.79884724189371
104.12442981689526
108.88658312833213
117.85139332219369
133.29164888858494
157.55402636830974
192.3413645313935
192.32095662149163
157.53285492621566
133.2699438150352
117.82928934521418
108.86418688653453
104.10185683745374
101.77616043083249
100.72572646456703
100.28402962988487
100.10997205857272
100.04528172897548
100.02247190707818
100.01480168412431
100.01233399691448
100.01158563442367
100.01142247548017
100.01158563437495
100.01233399673933
100.01480168854725
100.02247192129207
100.04528168176437
100.10997210376169
100.28402990871075
100.72572639179755
101.77616197753785
104.10185463162483
108.86418949948086
117.82928100835939
133.26994657437015
157.53288720353305
192.32095628392904
192.31411534592405
157.52576775222818
133.26266538744838
117.8218699017151
108.85666912946992
104.09427439784633
101.76853788698
100.7180805072567
100.27637080456465
100.10230657335758
100.03761299495159
100.01480167722923
100.00713080330596
100.0046628487365
100.0039143855424
100.00375120123657
100.00391438549356
100.00466284856128
100.00713080772931
100.01480169144405
100.03761294773767
100.10230661854844
100.27637108339951
100.71808043448497
101.768539433715
104.09427219198274
108.85667174244773
117.82186156477594
133.26266814680645
157.52580002978598
192.31411500836006
192.31192115200147
157.5234944268801
133.26032997304594
117.81948816745815
108.85425462099845
104.09183793838842
101.76608753141262
100.71562184536484
100.2739074569733
100.09984073137389
100.03514589933107
100.01233398626775
100.0046628449847
100.0021947771618
100.00144627010818
100.00128307455364
100.00144627005928
100.00219477698666
100.0046628494082
100.01233400048297
100.0351458521159
100.09984077656547
100.27390773581163
100.71562177259219
101.76608907815795
104.09183573251282
108.85425723398681
117.81947983049113
133.26033273241146
157.52352670451563
192.31192081443695
192.31125766373077
157.5228069389032
133.2596235069153
117.8187673957904
108.85352359456861
104.09109993494002
101.76534502942826
100.71487659784708
100.27316062451756
100.09909303381072
100.03439775526347
100.01158562420284
100.00391438221654
100.00144627053423
100.00069774606727
100.00053454597419
100.00069774601845
100.00144627035905
100.00391438664018
100.01158563841827
100.03439770804795
100.09909307900256
100.27316090335691
100.71487652507413
101.76534657617711
104.09109772906073
108.85352620756036
117.81875905881478
133.25962626628325
157.52283921656223
192.311257326166
192.31111330717087
157.52265734998616
133.25946975844928
117.81861048984183
108.85336440525501
104.09093917561474
101.76518324530899
100.71471417952436
100.2729978344143
100.09893003737798
100.03423465044673
100.01142246549307
100.00375119814444
100.00128307521346
100.00053454620792
100.00037134491954
100.00053454615916
100.00128307503834
100.0037512025682
100.01142247970849
100.0342346032313
100.09893008256988
100.27299811325396
100.71471410675137
101.76518479205866
104.09093696973459
108.85336701824755
117.81860215286426
133.25947251781764
157.52268962765058
192.31111296960623
192.31125766385102
157.52280693902782
133.25962350704344
117.81876739592114
108.85352359470133
104.09109993507407
101.76534502956305
100.71487659798233
100.27316062465319
100.09909303394642
100.0343977553992
100.0115856243387
100.0039143823524
100.00144627067012
100.00069774620309
100.00053454610998
100.0006977461543
100.00144627049497
100.00391438677602
100.01158563855405
100.03439770818375
100.09909307913823
100.27316090349245
100.71487652520936
101.76534657631187
104.09109772919467
108.85352620769302
117.81875905894564
133.2596262664114
157.52283921668706
192.31125732628652
192.31192115238397
157.52349442727652
133.2603299734533
117.81948816787357
108.85425462141964
104.09183793881351
101.7660875318402
100.71562184579396
100.2739074574033
100.09984073180426
100.03514589976166
100.01233398669838
100.00466284541541
100.00219477759262
100.00144627053888
100.00128307498437
100.00144627049018
100.00219477741747
100.00466284983906
100.01233400091367
100.03514585254652
100.09984077699582
100.27390773624148
100.7156217730213
101.76608907858562
104.09183573293801
108.85425723440811
117.81947983090664
133.26033273281877
157.52352670491214
192.3119208148197
192.31411534712566
157.52576775347293
133.26266538872702
117.82186990301865
108.85666913079098
104.09427439917899
101.76853788831988
100.71808050860089
100.27637080591113
100.10230657470531
100.03761299629986
100.0148016785778
100.00713080465464
100.00466285008518
100.0039143868911
100.00375120258525
100.00391438684225
100.0046628499101
100.00713080907796
100.01480169279264
100.03761294908591
100.10230661989611
100.276371084746
100.71808043582905
101.7685394350549
104.0942721933154
108.85667174376883
117.82186156607958
133.2626681480851
157.52580003103083
192.31411500956162
192.32095662548758
157.53285493035497
133.26994381928532
117.82928934954528
108.86418689092135
104.10185684187692
101.77616043527799
100.72572646902512
100.28402963434989
100.10997206304117
100.04528173344562
100.02247191154895
100.01480168859541
100.0123340013857
100.01158563889487
100.01142247995142
100.01158563884616
100.01233400121052
100.01480169301834
100.02247192576276
100.04528168623438
100.10997210823005
100.28402991317567
100.72572639625558
101.77616198198311
104.101854636048
108.86418950386769
117.82928101269046
133.26994657862028
157.5328872076724
192.32095628792513
192.3413649006013
157.55399412448503
133.29164616296478
117.851401693078
108.88658055017183
104.12443205759575
101.79884573039874
100.74847443098379
100.30681109831924
100.13277035956771
100.06808798974996
100.04528171742717
100.03761299029632
100.03514589842622
100.03439775393262
100.03423464888225
100.03439775388385
100.03514589825112
100.03761299471829
100.04528173163851
100.06808794254515
100.13277040475187
100.30681137712175
100.74847435822002
101.79884727702296
104.12442985186281
108.88658316302902
117.85139335646612
133.29164892223213
157.5540264010909
192.34136456304378
192.39942428896
157.61412503763603
133.35335717045388
117.91424764125739
108.95019206445807
104.1885276458612
101.86322795788715
100.81301557872965
100.3714347966413
100.1974342881247
100.1327703502547
100.10997203771471
100.10230655939002
100.09984072115479
100.09909302316588
100.09893002649957
100.09909302311709
100.09984072097984
100.10230656381009
100.10997205192074
100.13277030306486
100.19743433329717
100.37143507538718
100.81301550598008
101.86322950430306
104.18852544038062
108.95019467707449
117.91423930531208
133.35335992953299
157.6141573122352
192.39942395141688
192.5561191818524
157.77638853492599
133.51982343789723
118.08368977165948
109.1216057090776
104.36116133801121
102.03656646105125
100.98673429707254
100.54534528834033
100.3714354018271
100.30681169432196
100.28403021440327
100.2763713959885
100.27390805214961
100.27316121927105
100.27299842893515
100.27316121922236
100.27390805197479
100.27637140040444
100.28403022859828
100.30681164716394
100.37143544697403
100.54534556695616
100.98673422435593
102.03656800696119
104.36115913315713
109.12160832108
118.08368143744484
133.51982619647825
157.7764208041587
192.55611884435083
192.9549369175188
158.18932106752692
133.94329153983995
118.51450699982112
109.55720108805498
104.79964830757986
102.47668199321097
101.42770425830656
100.9867336595348
100.81301554545952
100.74847438840887
100.72572641047108
100.71808046003508
100.71562180188093
100.71487655393848
100.71471413538305
100.71487655388998
100.71562180170659
100.71808046444322
100.72572642464425
100.74847434131541
100.81301559055319
100.98673393787045
101.42770418566116
102.47668353796547
104.79964610418766
109.55720369858366
118.5144986698368
133.94329429718047
158.18935332323122
192.95493658012956
193.90610155814133
159.1740073681562
134.9527161616668
119.54092423360767
110.59445551681455
105.8433137362318
103.52386699357733
102.47668541023506
102.03656924443051
101.8632313454288
101.79884910912403
101.77616379825213
101.7685412613223
101.76609090950411
101.76534840710427
101.76518662275497
101.76534840705597
101.76609090933039
101.76854126571644
101.77616381238457
101.79884906215301
101.86323139041828
102.03656952220052
102.47668533773408
103.52386853586461
105.84331153602989
110.59445812403334
119.54091591330108
134.95271891611264
159.17403959190912
193.9061012210331
196.01762089757477
161.3596295537087
137.19240323667884
121.81717753658116
112.89358401562208
108.15567306166923
105.84331009322544
104.79964806478809
104.36116046127961
104.18852736975168
104.12443177220965
104.1018565406259
104.09427410783657
104.0918376520824
104.0910996482129
104.09093888865696
104.09109964816487
104.09183765190971
104.09427411220693
104.10185655468769
104.12443172545663
104.18852741455042
104.3611607379832
104.79964799256061
105.84331163060435
108.15567086795068
112.89358661592233
121.81716923687692
137.1924059848373
161.35966170721971
196.0176205611168
200.35190885017198
165.8454067164961
141.78748061388993
126.4850715658612
117.60618789334832
112.89358351450434
110.59445139306024
109.55720034380701
109.12160433497125
108.95019128678835
108.88657976325553
108.86418608825741
108.85666833795207
108.85425383315021
108.85352280630259
108.85336361676062
108.85352280625499
108.85425383297905
108.85666834228428
108.8641861022037
108.8865797168662
108.95019133126073
109.12160460980034
109.55720027206223
110.59445292137046
112.89358133300615
117.6061904802526
126.48506330675323
141.78748334941022
165.84543872717865
200.3519085150922
208.5286985488363
174.30689915735528
150.45225530569243
135.28337661144525
126.48507075287431
121.81717622317512
119.54091933263771
118.5145054430796
118.083687591774
117.91424605098328
117.85140009361267
117.82928773451493
117.82186829768438
117.81948656704616
117.81876579496564
117.81860888879177
117.81876579491878
117.81948656687729
117.82186830195917
117.82928774828353
117.85140004779319
117.91424609493345
118.08368786353242
118.51450537212895
119.54092084542026
121.81717406298215
126.48507331584385
135.28336842605023
150.45225801783027
174.30693090094437
208.52869821641838
222.63696313695428
188.9047416358141
165.39644804010433
150.45225407716515
141.78747857416153
137.19240069867914
134.95271009200727
133.94328875873953
133.51982004395512
133.35335435574612
133.2916433391607
133.2699409801842
133.2626625591347
133.26032714827883
133.25962068174283
133.2594669330559
133.25962068169682
133.26032714811342
133.26266256332755
133.2699409936953
133.29164329417893
133.3533543989146
133.51982031102506
133.94328868900567
134.95271158017337
137.19239857279095
141.78748109776592
150.45224601472344
165.39645071258354
188.90477292211304
222.6369628091991
244.83763971248658
211.87369539941986
188.90480375554108
174.30696098552835
165.84546828350312
161.35969091841204
159.1740654270409
158.18938239871414
157.7764492956225
157.614186373776
157.55405545576897
157.53291624816325
157.52582908102448
157.5235557592849
157.52286827096066
157.5227186818391
157.5228682709159
157.52355575912395
157.5258290851067
157.532916261322
157.554055411946
157.61418641584757
157.77644955601005
158.1893823307197
159.17406687905083
161.35968884354503
165.8454707475461
174.3069531112626
188.90480636648212
211.87372597067204
244.83763939213313
276.70109766898327
244.83758304041646
222.63696518335496
208.52869946598383
200.3519090201452
196.01762060759492
193.90609794470865
192.95493640614657
192.556118094534
192.39942374747164
192.34136435072082
192.3209560612858
192.3141147918872
192.3119206013045
192.31125711265508
192.31111275588827
192.3112571126116
192.311920601149
192.31411479582746
192.32095607398912
192.34136430841016
192.39942378809678
192.55611834600725
192.95493634047781
193.90609934740343
196.01761860296605
200.35191140114847
208.5286918562974
222.63696770688216
244.83761259017646
276.701097359302
