# vtk DataFile Version 2.0
Unstructured Grid Example
ASCII
DATASET UNSTRUCTURED_GRID

POINTS 961 float
0.100000001 0.00499999989 0
0.0966666639 0.00499999989 0
0.0933333337 0.00499999989 0
0.0900000036 0.00499999989 0
0.086666666 0.00499999989 0
0.0833333358 0.00499999989 0
0.0799999982 0.00499999989 0
0.0766666681 0.00499999989 0
0.0733333305 0.00499999989 0
0.0700000003 0.00499999989 0
0.0666666701 0.00499999989 0
0.0633333325 0.00499999989 0
0.0599999987 0.00499999989 0
0.0566666685 0.00499999989 0
0.0533333346 0.00499999989 0
0.0500000007 0.00499999989 0
0.0466666669 0.00499999989 0
0.043333333 0.00499999989 0
0.0399999991 0.00499999989 0
0.0366666652 0.00499999989 0
0.0333333351 0.00499999989 0
0.0299999993 0.00499999989 0
0.0266666673 0.00499999989 0
0.0233333334 0.00499999989 0
0.0199999996 0.00499999989 0
0.0166666675 0.00499999989 0
0.0133333337 0.00499999989 0
0.00999999978 0.00499999989 0
0.00666666683 0.00499999989 0
0.00333333341 0.00499999989 0
0.0 0.00499999989 0
0.100000001 0.00166666671 0
0.0966666639 0.00166666671 0
0.0933333337 0.00166666671 0
0.0900000036 0.00166666671 0
0.086666666 0.00166666671 0
0.0833333358 0.00166666671 0
0.0799999982 0.00166666671 0
0.0766666681 0.00166666671 0
0.0733333305 0.00166666671 0
0.0700000003 0.00166666671 0
0.0666666701 0.00166666671 0
0.0633333325 0.00166666671 0
0.0599999987 0.00166666671 0
0.0566666685 0.00166666671 0
0.0533333346 0.00166666671 0
0.0500000007 0.00166666671 0
0.0466666669 0.00166666671 0
0.043333333 0.00166666671 0
0.0399999991 0.00166666671 0
0.0366666652 0.00166666671 0
0.0333333351 0.00166666671 0
0.0299999993 0.00166666671 0
0.0266666673 0.00166666671 0
0.0233333334 0.00166666671 0
0.0199999996 0.00166666671 0
0.0166666675 0.00166666671 0
0.0133333337 0.00166666671 0
0.00999999978 0.00166666671 0
0.00666666683 0.00166666671 0
0.00333333341 0.00166666671 0
0.0 0.00166666671 0
0.100000001 -0.00166666671 0
0.0966666639 -0.00166666671 0
0.0933333337 -0.00166666671 0
0.0900000036 -0.00166666671 0
0.086666666 -0.00166666671 0
0.0833333358 -0.00166666671 0
0.0799999982 -0.00166666671 0
0.0766666681 -0.00166666671 0
0.0733333305 -0.00166666671 0
0.0700000003 -0.00166666671 0
0.0666666701 -0.00166666671 0
0.0633333325 -0.00166666671 0
0.0599999987 -0.00166666671 0
0.0566666685 -0.00166666671 0
0.0533333346 -0.00166666671 0
0.0500000007 -0.00166666671 0
0.0466666669 -0.00166666671 0
0.043333333 -0.00166666671 0
0.0399999991 -0.00166666671 0
0.0366666652 -0.00166666671 0
0.0333333351 -0.00166666671 0
0.0299999993 -0.00166666671 0
0.0266666673 -0.00166666671 0
0.0233333334 -0.00166666671 0
0.0199999996 -0.00166666671 0
0.0166666675 -0.00166666671 0
0.0133333337 -0.00166666671 0
0.00999999978 -0.00166666671 0
0.00666666683 -0.00166666671 0
0.00333333341 -0.00166666671 0
0.0 -0.00166666671 0
0.100000001 -0.00499999989 0
0.0966666639 -0.00499999989 0
0.0933333337 -0.00499999989 0
0.0900000036 -0.00499999989 0
0.086666666 -0.00499999989 0
0.0833333358 -0.00499999989 0
0.0799999982 -0.00499999989 0
0.0766666681 -0.00499999989 0
0.0733333305 -0.00499999989 0
0.0700000003 -0.00499999989 0
0.0666666701 -0.00499999989 0
0.0633333325 -0.00499999989 0
0.0599999987 -0.00499999989 0
0.0566666685 -0.00499999989 0
0.0533333346 -0.00499999989 0
0.0500000007 -0.00499999989 0
0.0466666669 -0.00499999989 0
0.043333333 -0.00499999989 0
0.0399999991 -0.00499999989 0
0.0366666652 -0.00499999989 0
0.0333333351 -0.00499999989 0
0.0299999993 -0.00499999989 0
0.0266666673 -0.00499999989 0
0.0233333334 -0.00499999989 0
0.0199999996 -0.00499999989 0
0.0166666675 -0.00499999989 0
0.0133333337 -0.00499999989 0
0.00999999978 -0.00499999989 0
0.00666666683 -0.00499999989 0
0.00333333341 -0.00499999989 0
0.0 -0.00499999989 0
0.100000001 -0.00833333377 0
0.0966666639 -0.00833333377 0
0.0933333337 -0.00833333377 0
0.0900000036 -0.00833333377 0
0.086666666 -0.00833333377 0
0.0833333358 -0.00833333377 0
0.0799999982 -0.00833333377 0
0.0766666681 -0.00833333377 0
0.0733333305 -0.00833333377 0
0.0700000003 -0.00833333377 0
0.0666666701 -0.00833333377 0
0.0633333325 -0.00833333377 0
0.0599999987 -0.00833333377 0
0.0566666685 -0.00833333377 0
0.0533333346 -0.00833333377 0
0.0500000007 -0.00833333377 0
0.0466666669 -0.00833333377 0
0.043333333 -0.00833333377 0
0.0399999991 -0.00833333377 0
0.0366666652 -0.00833333377 0
0.0333333351 -0.00833333377 0
0.0299999993 -0.00833333377 0
0.0266666673 -0.00833333377 0
0.0233333334 -0.00833333377 0
0.0199999996 -0.00833333377 0
0.0166666675 -0.00833333377 0
0.0133333337 -0.00833333377 0
0.00999999978 -0.00833333377 0
0.00666666683 -0.00833333377 0
0.00333333341 -0.00833333377 0
0.0 -0.00833333377 0
0.100000001 -0.0116666667 0
0.0966666639 -0.0116666667 0
0.0933333337 -0.0116666667 0
0.0900000036 -0.0116666667 0
0.086666666 -0.0116666667 0
0.0833333358 -0.0116666667 0
0.0799999982 -0.0116666667 0
0.0766666681 -0.0116666667 0
0.0733333305 -0.0116666667 0
0.0700000003 -0.0116666667 0
0.0666666701 -0.0116666667 0
0.0633333325 -0.0116666667 0
0.0599999987 -0.0116666667 0
0.0566666685 -0.0116666667 0
0.0533333346 -0.0116666667 0
0.0500000007 -0.0116666667 0
0.0466666669 -0.0116666667 0
0.043333333 -0.0116666667 0
0.0399999991 -0.0116666667 0
0.0366666652 -0.0116666667 0
0.0333333351 -0.0116666667 0
0.0299999993 -0.0116666667 0
0.0266666673 -0.0116666667 0
0.0233333334 -0.0116666667 0
0.0199999996 -0.0116666667 0
0.0166666675 -0.0116666667 0
0.0133333337 -0.0116666667 0
0.00999999978 -0.0116666667 0
0.00666666683 -0.0116666667 0
0.00333333341 -0.0116666667 0
0.0 -0.0116666667 0
0.100000001 -0.0149999997 0
0.0966666639 -0.0149999997 0
0.0933333337 -0.0149999997 0
0.0900000036 -0.0149999997 0
0.086666666 -0.0149999997 0
0.0833333358 -0.0149999997 0
0.0799999982 -0.0149999997 0
0.0766666681 -0.0149999997 0
0.0733333305 -0.0149999997 0
0.0700000003 -0.0149999997 0
0.0666666701 -0.0149999997 0
0.0633333325 -0.0149999997 0
0.0599999987 -0.0149999997 0
0.0566666685 -0.0149999997 0
0.0533333346 -0.0149999997 0
0.0500000007 -0.0149999997 0
0.0466666669 -0.0149999997 0
0.043333333 -0.0149999997 0
0.0399999991 -0.0149999997 0
0.0366666652 -0.0149999997 0
0.0333333351 -0.0149999997 0
0.0299999993 -0.0149999997 0
0.0266666673 -0.0149999997 0
0.0233333334 -0.0149999997 0
0.0199999996 -0.0149999997 0
0.0166666675 -0.0149999997 0
0.0133333337 -0.0149999997 0
0.00999999978 -0.0149999997 0
0.00666666683 -0.0149999997 0
0.00333333341 -0.0149999997 0
0.0 -0.0149999997 0
0.100000001 -0.0183333326 0
0.0966666639 -0.0183333326 0
0.0933333337 -0.0183333326 0
0.0900000036 -0.0183333326 0
0.086666666 -0.0183333326 0
0.0833333358 -0.0183333326 0
0.0799999982 -0.0183333326 0
0.0766666681 -0.0183333326 0
0.0733333305 -0.0183333326 0
0.0700000003 -0.0183333326 0
0.0666666701 -0.0183333326 0
0.0633333325 -0.0183333326 0
0.0599999987 -0.0183333326 0
0.0566666685 -0.0183333326 0
0.0533333346 -0.0183333326 0
0.0500000007 -0.0183333326 0
0.0466666669 -0.0183333326 0
0.043333333 -0.0183333326 0
0.0399999991 -0.0183333326 0
0.0366666652 -0.0183333326 0
0.0333333351 -0.0183333326 0
0.0299999993 -0.0183333326 0
0.0266666673 -0.0183333326 0
0.0233333334 -0.0183333326 0
0.0199999996 -0.0183333326 0
0.0166666675 -0.0183333326 0
0.0133333337 -0.0183333326 0
0.00999999978 -0.0183333326 0
0.00666666683 -0.0183333326 0
0.00333333341 -0.0183333326 0
0.0 -0.0183333326 0
0.100000001 -0.0216666665 0
0.0966666639 -0.0216666665 0
0.0933333337 -0.0216666665 0
0.0900000036 -0.0216666665 0
0.086666666 -0.0216666665 0
0.0833333358 -0.0216666665 0
0.0799999982 -0.0216666665 0
0.0766666681 -0.0216666665 0
0.0733333305 -0.0216666665 0
0.0700000003 -0.0216666665 0
0.0666666701 -0.0216666665 0
0.0633333325 -0.0216666665 0
0.0599999987 -0.0216666665 0
0.0566666685 -0.0216666665 0
0.0533333346 -0.0216666665 0
0.0500000007 -0.0216666665 0
0.0466666669 -0.0216666665 0
0.043333333 -0.0216666665 0
0.0399999991 -0.0216666665 0
0.0366666652 -0.0216666665 0
0.0333333351 -0.0216666665 0
0.0299999993 -0.0216666665 0
0.0266666673 -0.0216666665 0
0.0233333334 -0.0216666665 0
0.0199999996 -0.0216666665 0
0.0166666675 -0.0216666665 0
0.0133333337 -0.0216666665 0
0.00999999978 -0.0216666665 0
0.00666666683 -0.0216666665 0
0.00333333341 -0.0216666665 0
0.0 -0.0216666665 0
0.100000001 -0.0250000004 0
0.0966666639 -0.0250000004 0
0.0933333337 -0.0250000004 0
0.0900000036 -0.0250000004 0
0.086666666 -0.0250000004 0
0.0833333358 -0.0250000004 0
0.0799999982 -0.0250000004 0
0.0766666681 -0.0250000004 0
0.0733333305 -0.0250000004 0
0.0700000003 -0.0250000004 0
0.0666666701 -0.0250000004 0
0.0633333325 -0.0250000004 0
0.0599999987 -0.0250000004 0
0.0566666685 -0.0250000004 0
0.0533333346 -0.0250000004 0
0.0500000007 -0.0250000004 0
0.0466666669 -0.0250000004 0
0.043333333 -0.0250000004 0
0.0399999991 -0.0250000004 0
0.0366666652 -0.0250000004 0
0.0333333351 -0.0250000004 0
0.0299999993 -0.0250000004 0
0.0266666673 -0.0250000004 0
0.0233333334 -0.0250000004 0
0.0199999996 -0.0250000004 0
0.0166666675 -0.0250000004 0
0.0133333337 -0.0250000004 0
0.00999999978 -0.0250000004 0
0.00666666683 -0.0250000004 0
0.00333333341 -0.0250000004 0
0.0 -0.0250000004 0
0.100000001 -0.0283333343 0
0.0966666639 -0.0283333343 0
0.0933333337 -0.0283333343 0
0.0900000036 -0.0283333343 0
0.086666666 -0.0283333343 0
0.0833333358 -0.0283333343 0
0.0799999982 -0.0283333343 0
0.0766666681 -0.0283333343 0
0.0733333305 -0.0283333343 0
0.0700000003 -0.0283333343 0
0.0666666701 -0.0283333343 0
0.0633333325 -0.0283333343 0
0.0599999987 -0.0283333343 0
0.0566666685 -0.0283333343 0
0.0533333346 -0.0283333343 0
0.0500000007 -0.0283333343 0
0.0466666669 -0.0283333343 0
0.043333333 -0.0283333343 0
0.0399999991 -0.0283333343 0
0.0366666652 -0.0283333343 0
0.0333333351 -0.0283333343 0
0.0299999993 -0.0283333343 0
0.0266666673 -0.0283333343 0
0.0233333334 -0.0283333343 0
0.0199999996 -0.0283333343 0
0.0166666675 -0.0283333343 0
0.0133333337 -0.0283333343 0
0.00999999978 -0.0283333343 0
0.00666666683 -0.0283333343 0
0.00333333341 -0.0283333343 0
0.0 -0.0283333343 0
[...]
POINT_DATA 961
SCALARS Temp float 1
LOOKUP_TABLE default
341.08465853432136
309.9524768074805
285.19866760184914
266.3901700688492
252.75370950386534
243.32813107112506
237.1187821206137
233.21943125015264
230.8837739728962
229.5481205982918
228.8180782921682
228.43625828690517
228.24516557377538
228.1542383483053
228.1148942295062
228.10402684480925
228.11489422633895
228.15423833995797
228.24516570294367
228.43625856300886
228.81807764019683
229.54812101549888
230.8837756881861
233.2194308394776
237.1187868888737
243.3281258399078
252.75371396258046
266.39015860529844
285.1986706379423
309.95250759653123
341.0846583799495
309.95250968531445
277.69173627438545
252.04019627954972
232.54921830647922
218.41762093208197
208.6495329826666
202.214343458702
198.17302637727693
195.75223990430254
194.36784784379947
193.6111328875053
193.21534485501476
193.01725230037076
192.92299010413564
192.88220134017374
192.87093464843824
192.88220133689015
192.92299009548177
193.0172524342733
193.21534514122425
193.6111322116968
194.3678482762403
195.7522416821427
198.17302595163235
202.21434840046737
208.6495275612553
218.41762555274926
232.54920642682305
252.04019942578137
277.6917681798167
309.95250952536924
285.1986723079802
252.04016613775696
225.67378104295233
205.63860958492907
191.1115295323609
181.06931524907694
174.4529569575898
170.29746135643074
167.808016107628
166.3841970719835
165.60583724476598
165.19867709948986
164.99486670459882
164.8978715352033
164.85589557573365
164.84430016578207
164.85589557235423
164.89787152629756
164.99486684237374
165.19867739393763
165.60583654957904
166.38419751676665
167.80801793598272
170.29746091871039
174.45296203870262
181.0693096752387
191.11153428250205
205.63859737319015
225.67378427694715
252.04019893167504
285.1986721436483
266.39015878755544
232.54917087538203
205.63859245090612
185.1883935454071
170.35902757997349
160.10673270763195
153.3511137771823
149.10755635476005
146.5649632031466
145.11050495439318
144.31525558207088
143.8991841082218
143.69087389637437
143.59171896259423
143.54880141144542
143.53694470362728
143.54880140798969
143.5917189534888
143.6908740372021
143.89918440913635
144.31525487172738
145.11050540878733
146.56496507067092
149.1075559076895
153.35111896557117
160.10672701677282
170.35903242919503
185.18838108011582
205.63859575177509
232.54920434521944
266.3901586199352
252.75371428478806
218.41758962237904
191.11152943404562
170.35904522885707
155.30890283213012
144.90267402687144
138.04463292241542
133.73603959434567
131.15401796677432
129.67671994869937
128.8688166231989
128.44603368401533
128.2343165415275
128.1335179936883
128.08988068949603
128.07782369702355
128.08988068598194
128.1335179844303
128.2343166846721
128.44603398981025
128.86881590146703
129.67672041027583
131.15401986341834
133.7360391403362
138.04463818985087
144.90266825008018
155.3089077538217
170.35903257863
191.11153278357017
218.41762358301088
252.75371411482433
243.32812811522837
208.64949329223083
181.0693068556206
160.10674206802872
144.902665431125
134.38869346142883
127.45864721062117
123.10410719758825
120.49408084840836
119.00046768347855
118.18347092022078
117.75583499727152
117.54163885510394
117.43963706882664
117.39547007994123
117.38326521452755
117.39547007638394
117.4396370594568
117.54163899993877
117.75583530660424
118.18347019027695
119.00046815020099
120.49408276578703
123.10410673864861
127.4586525337514
134.3886876243359
144.90267040343343
160.10672928906118
181.06931023891693
208.64952759271318
243.32812794367774
237.1187870887684
202.2143117411129
174.45295697323482
153.35113184338954
138.0446330430895
127.4586560782151
120.48024516108543
116.09466944576232
113.46561038424454
111.96083612625266
111.13757557905066
110.70657288437715
110.49064446922965
110.38779598160446
110.34325400227533
110.33094406022526
110.34325399868749
110.3877959721554
110.4906446152493
110.70657319617129
111.13757484342781
111.96083659650743
113.4656123157559
116.09466898347087
120.48025052172065
127.45865020070417
138.0446380491436
153.35111897891872
174.45296037888593
202.2143462659425
237.11878691619734
233.2194318430022
198.17298997448734
170.29745668796573
149.1075697136716
133.73603485890396
123.10411119569284
116.09466450213138
111.68904767310738
109.0476138756371
107.53552943730126
106.708134476881
106.27489168167823
106.05780129844835
105.9543803786986
105.90958315287061
105.89720138935317
105.90958314926175
105.95438036919555
106.05780144526551
106.27489199511538
106.70813373749314
107.53552990987855
109.04761581636714
111.68904720863598
116.0946698869023
123.10410529230649
133.73603988643347
149.10755679501793
170.29746010773076
198.17302464052725
233.21943166980822
230.88377634172465
195.75220525180606
167.80801331922103
146.5649785282427
131.1540151815791
120.49408684134585
113.46560742580522
109.04761588408711
106.39848366204237
104.88181480480941
104.05180495340059
103.61713283446367
103.39929438876834
103.29550173709224
103.25053751548214
103.2381085473754
103.25053751185949
103.29550172755388
103.39929453610068
103.6171331489528
104.0518042116198
104.88181527884932
106.39848560852795
109.04761541825893
113.46561282542342
120.49408092213248
131.1540202221599
146.56496557681302
167.8080167474895
195.75224000264114
230.8837761681689
229.54812089690805
194.36781099373053
166.38419206939218
145.1105180442801
129.67671486641214
119.0004713676986
111.96083082772725
107.53552910255317
104.8818124510516
103.3623898652125
102.53079489983325
102.09524806522286
101.87694737522366
101.77292285928146
101.7278536328899
101.71539483668637
101.72785362925858
101.77292284972101
101.87694752287571
102.09524838035824
102.53079415659411
103.36239034013494
104.88181440097766
107.53552863591709
111.96083623608143
119.00046543922969
129.67671991457263
145.11050507390934
166.38419550255395
194.36784579318658
229.54812072315258
228.81807795574866
193.61109535076173
165.6058315609345
144.31526799046173
128.86881083354598
118.18347389656638
111.13756955909946
106.70813342156931
104.05180187468672
102.53079417584446
101.69827789462583
101.26221748704043
101.04364259362823
100.93947915722484
100.89434647690095
100.88186956149598
100.89434647326432
100.93947914765116
101.04364274147085
101.26221780255683
101.69827715053432
102.53079465127733
104.05180382658332
106.70813295447232
111.13757497237367
118.18346796291839
128.86881588591734
144.31525500962312
165.60583499678847
193.6111301768682
228.8180777818879
228.43625865471864
193.2153080333511
165.19867216442663
143.89919728943664
128.44602867168163
117.75583876382784
110.70656765647823
106.27489142494812
103.61713055579663
102.09524814417794
101.2622182913777
100.82586856520554
100.60713753095023
100.50289415957485
100.45772464045866
100.44523714862127
100.45772463681895
100.50289414999335
100.60713767890186
100.82586888093759
101.26221754680824
102.09524861989392
103.61713250877493
106.27489095759924
110.70657307240675
117.75583282740467
128.44603372629265
143.8991843030604
165.19867560169828
193.21534287343692
228.43625848080504
228.2451658407681
193.01721536671857
164.99486166094084
143.69088697052294
128.2343114163919
117.54164250962589
110.4906391261913
106.05780092725446
103.39929199466644
101.87694733920517
101.04364328310808
100.60713741573721
100.38832118566309
100.28403373360221
100.23884371458183
100.2263503048738
100.23884371094039
100.28403372401635
100.38832133367434
100.60713773158606
101.04364253828189
101.87694781507145
103.39929394821337
106.05780045977367
110.49064454349042
117.54163657177912
128.23431647214315
143.69087398134297
164.99486509892702
193.01725021382157
228.24516566682902
228.15423849829816
192.92295304562433
164.89786636622202
143.59173191050863
128.1335127382969
117.43964059254239
110.38779050558932
105.9543798744153
103.2954992091277
101.77292268944902
100.93947971284106
100.50289391025345
100.28403359945862
100.1797231048454
100.13452227601788
100.12202572934487
100.13452227237543
100.17972309525724
100.28403374750087
100.50289422616237
100.93947896788391
101.77292316539106
103.29550116295836
105.95437940686904
110.38779592356074
117.43963465400196
128.1335177945997
143.59171891997946
164.89786980455037
192.92298789607577
228.1542383243475
228.11489439735104
192.88216429862115
164.85589042556984
143.54881437941452
128.089875453645
117.39547362386962
110.34324854615684
105.90958266887114
103.25053500773907
101.72785348347921
100.8943470530243
100.45772441159409
100.23884360091293
100.13452229651084
100.08931635906525
100.07681832333537
100.0893163554224
100.13452228692157
100.23884374896973
100.45772472753075
100.89434630800709
101.72785395945573
103.25053696169763
105.90958220129544
110.34325396442706
117.39546768502282
128.08988051018994
143.54880138829589
164.85589386404732
192.88219915052542
228.11489422339548
228.1040270278465
192.87089762220805
164.84429503176543
143.5369576883343
128.07781847795704
117.38326877556842
110.33093862123037
105.8972009226543
103.2381060569602
101.71539470468885
100.88187015507413
100.44523693720721
100.22635020866639
100.12202576730742
100.07681834080641
100.06431986990395
100.07681833716347
100.12202575771794
100.22635035672732
100.44523725315189
100.88186941003984
101.71539518067519
103.23810801095499
105.89720045507029
110.33094403958451
117.38326283663596
128.0778235345696
143.5369446970519
164.84429847028426
192.87093247451412
228.10402685389
228.11489440472204
192.8821643062629
164.855890433434
143.54881438745517
128.08987546182036
117.39547363214427
110.34324855450174
105.90958267726381
103.25053501616304
101.72785349192282
100.89434706147975
100.45772442005635
100.23884360937906
100.13452230497896
100.0893163675343
100.07681833180467
100.08931636389148
100.13452229538977
100.23884375743592
100.45772473599308
100.89434631646255
101.72785396789934
103.25053697012153
105.90958220968811
110.34325397277188
117.39546769329748
128.08988051836533
143.54880139633644
164.8558938719115
192.88219915816723
228.11489423076685
228.15423851608443
192.9229530640631
164.89786638519624
143.59173192990625
128.13351275801736
117.43964061249933
110.38779052571309
105.95437989465216
103.29549922943802
101.77292270980534
100.93947973322497
100.50289393065333
100.2840336198671
100.17972312525866
100.13452229643329
100.12202574976092
100.13452229279098
100.1797231156706
100.28403376790963
100.50289424656229
100.93947898826792
101.77292318574739
103.29550118326861
105.95437942710576
110.3877959436846
117.4396346739589
128.1335178143201
143.59171893937716
164.89786982352456
192.92298791451483
228.15423834213402
228.24516587876005
193.01721540610308
164.9948617014638
143.69088701194295
128.2343114584924
117.54164255222227
110.49063916913516
106.05780097043187
103.39929203799475
101.87694738262692
101.04364332658542
100.6071374592463
100.38832122918953
100.28403377713767
100.2388437581215
100.22635034841463
100.23884375448004
100.28403376755188
100.38832137720087
100.60713777509514
101.04364258175923
101.8769478584932
103.39929399154154
106.05780050295107
110.4906445864341
117.54163661437558
128.23431651424355
143.6908740227628
164.99486513944996
193.01725025320613
228.2451657048211
228.43625873979488
193.215308121541
165.19867225515438
143.89919738215596
128.4460287659034
117.7558388591385
110.70656775254616
106.27489152152125
103.61713065269306
102.09524824127288
101.26221838858963
100.82586866248357
100.60713762826411
100.50289425690703
100.45772473779935
100.4452372459644
100.45772473415961
100.50289424732556
100.60713777621555
100.82586897821557
101.26221764402008
102.09524871698886
103.61713260567139
106.27489105417224
110.70657316847443
117.75583292271519
128.44603382051437
143.8991843957796
165.1986756924261
193.21534296162687
228.43625856588122
228.81807842288768
193.6110958349773
165.60583205902708
144.31526849940224
128.86881135063228
118.18347441952203
111.13757008611064
106.7081339512666
104.05180240608935
102.53079470828503
101.6982784276724
101.26221802042632
101.04364312719629
100.93947969088545
100.89434701060402
100.88187009521123
100.89434700696732
100.93947968131164
101.04364327503878
101.26221833594263
101.69827768358086
102.53079518371793
104.0518043579859
106.70813348416957
111.13757549938474
118.18346848587399
128.8688164030035
144.31525551856353
165.6058354948811
193.61113066108376
228.818078249027
229.54812064590115
194.36781073355556
166.38419180178343
145.11051777087627
129.6767145886722
119.00047108684724
111.96083054473638
107.53552881815287
104.88181216576173
103.36238957938463
102.53079461369347
102.09524777890974
101.87694708881811
101.77292257282934
101.72785334641641
101.71539455020675
101.72785334278498
101.7729225632688
101.8769472364702
102.09524809404493
102.53079387045427
103.36239005430707
104.88181411568782
107.53552835151666
111.96083595309052
119.00046515837833
129.67671963683273
145.11050480050545
166.38419523494522
194.36784553301192
229.54812047214557
230.8837778371201
195.75220680173464
167.80801491319235
146.56498015636805
131.1540168350985
120.49408851294918
113.46560910973604
109.04761757606023
106.39848535903747
104.88181650480695
104.05180665511804
103.61713453712537
103.39929609192637
103.29550344049798
103.2505392189996
103.23811025092445
103.25053921537696
103.29550343095957
103.39929623925865
103.6171348516144
104.05180591333709
104.88181697884673
106.3984873055229
109.04761711023218
113.46561450935434
120.49408259373583
131.15402187567932
146.56496720493863
167.80801834146084
195.7522415525698
230.88377766356467
233.21943105301426
198.17298915571527
170.29745584599738
149.10756885376608
133.7360339857092
123.10411031307387
116.09466361311887
111.68904677994664
109.04761297990143
107.53552854003598
106.7081335787455
106.27489078306837
106.057800399591
105.95437947971838
105.90958225383548
105.89720049030251
105.90958225022669
105.95437947021534
106.05780054640796
106.27489109650541
106.70813283935752
107.53552901261315
109.04761492063139
111.6890463154752
116.09466899788994
123.1041044096877
133.7360390132389
149.10755593511277
170.29745926576257
198.1730238217554
233.21943087982052
237.1187927187334
202.2143175759435
174.45296297260828
153.3511379694455
138.04463926250034
127.45866236340987
120.48025149058441
116.09467580377672
113.4656167598031
111.96084251213549
111.13758197074917
110.70657927921356
110.49065086568666
110.38780237885675
110.34326039988095
110.33095045793
110.34326039629299
110.38780236940757
110.49065101170626
110.7065795910075
111.13758123512625
111.96084298239015
113.46561869131449
116.09467534148533
120.48025685121983
127.45865648589914
138.04464426855463
153.3511251049751
174.45296637825973
202.21435210077323
237.1187925461628
243.32813021777915
208.64949547120497
181.06930909580154
160.1067443551581
144.90266775269382
134.3886958071349
127.45864957248324
123.10410956977731
120.49408322690394
119.00047006565609
118.18347330445512
117.75583738260599
117.54164124100174
117.43963945499847
117.39547246623404
117.38326760085411
117.39547246267684
117.43963944562856
117.54164138583653
117.75583769193862
118.18347257451128
119.00047053237839
120.49408514428268
123.10410911083777
127.45865489561356
134.38868997004204
144.90267272500253
160.10673157619104
181.0693124790981
208.6495297716876
243.32813004622886
252.75370806461876
218.4175831762562
191.11152280724014
170.35903846374148
155.3088959658127
144.90266708983881
138.04462593821444
133.73603258011104
131.15401093427698
129.67671290558917
128.8688095741892
128.44602663186578
128.23430948777857
128.133510939165
128.08987363463282
128.07781664206567
128.08987363111876
128.13351092990723
128.23430963092318
128.44602693766063
128.86880885245722
129.67671336716552
131.154012830921
133.73603212610152
138.04463120564984
144.9026613130475
155.30890088750454
170.35902581351465
191.11152615676528
218.41761713688845
252.75370789465512
266.39016787541016
232.54918029310167
205.63860213186578
185.1884034273407
170.35903760848007
160.10674283816186
153.3511239754635
149.10756659596916
146.5649734703199
145.1105152365691
144.315265872537
143.89919440307278
143.69088419344493
143.5917292607328
143.54881171005056
143.53695500236205
143.54881170659488
143.5917292516274
143.6908843342728
143.8991947039871
144.31526516219324
145.11051569096304
146.56497533784392
149.10756614889843
153.35112916385228
160.10673714730294
170.35904245770158
185.18839096204982
205.63860543273492
232.54921376293873
266.3901677077902
285.19866450873815
252.04015805559038
225.67377273534748
205.63860110555274
191.11152092801683
181.069306558001
174.45294820910905
170.29745257171248
167.8080073010806
166.38418825287732
165.60582841875149
165.1986682698382
164.99485787311485
164.89786270284154
164.85588674299004
164.84429133293264
164.85588673961064
164.89786269393562
164.99485801088954
165.19866856428595
165.6058277235643
166.38418869766016
167.80800912943522
170.2974521339919
174.45295329022173
181.06930098416265
191.111525678158
205.63858889381365
225.6737759693424
252.04019084950892
285.1986643444063
309.9525354292467
277.69176295176266
252.040223699809
232.5492462918769
218.4176493278258
208.6495616625454
202.21437232614196
198.17305536276857
195.75226896068023
194.36787694082076
193.61116200680326
193.21537398599727
193.0172814372184
192.92301924378188
192.88223048103384
192.87096378963406
192.88223047775008
192.9230192351278
193.0172815711207
193.21537427220665
193.61116133099455
194.36787737326114
195.7522707385202
198.17305493712396
202.21437726790705
208.6495562411341
218.4176539484929
232.54923441222135
252.0402268460404
277.6917948571931
309.9525352693016
341.08465845165784
309.9524767218339
285.1986675138575
266.39016997910267
252.75370941287036
243.3281309792872
237.1187820282354
233.2194311574456
230.88377387999898
229.54812050528975
228.81807819911128
228.43625819382098
228.24516548067797
228.1542382552021
228.11489413640035
228.10402675170266
228.11489413323298
228.1542382468544
228.2451656098462
228.43625846992447
228.81807754713967
229.54812092249662
230.8837755952884
233.21943074677006
237.11878679649527
243.32812574806974
252.75371387158566
266.39015851555206
285.198670549951
309.9525075108847
341.084658297286
