# vtk DataFile Version 2.0
Unstructured Grid Example
ASCII
DATASET UNSTRUCTURED_GRID

POINTS 961 float
0.100000001 0.00499999989 0
0.0966666639 0.00499999989 0
0.0933333337 0.00499999989 0
0.0900000036 0.00499999989 0
0.086666666 0.00499999989 0
0.0833333358 0.00499999989 0
0.0799999982 0.00499999989 0
0.0766666681 0.00499999989 0
0.0733333305 0.00499999989 0
0.0700000003 0.00499999989 0
0.0666666701 0.00499999989 0
0.0633333325 0.00499999989 0
0.0599999987 0.00499999989 0
0.0566666685 0.00499999989 0
0.0533333346 0.00499999989 0
0.0500000007 0.00499999989 0
0.0466666669 0.00499999989 0
0.043333333 0.00499999989 0
0.0399999991 0.00499999989 0
0.0366666652 0.00499999989 0
0.0333333351 0.00499999989 0
0.0299999993 0.00499999989 0
0.0266666673 0.00499999989 0
0.0233333334 0.00499999989 0
0.0199999996 0.00499999989 0
0.0166666675 0.00499999989 0
0.0133333337 0.00499999989 0
0.00999999978 0.00499999989 0
0.00666666683 0.00499999989 0
0.00333333341 0.00499999989 0
0.0 0.00499999989 0
0.100000001 0.00166666671 0
0.0966666639 0.00166666671 0
0.0933333337 0.00166666671 0
0.0900000036 0.00166666671 0
0.086666666 0.00166666671 0
0.0833333358 0.00166666671 0
0.0799999982 0.00166666671 0
0.0766666681 0.00166666671 0
0.0733333305 0.00166666671 0
0.0700000003 0.00166666671 0
0.0666666701 0.00166666671 0
0.0633333325 0.00166666671 0
0.0599999987 0.00166666671 0
0.0566666685 0.00166666671 0
0.0533333346 0.00166666671 0
0.0500000007 0.00166666671 0
0.0466666669 0.00166666671 0
0.043333333 0.00166666671 0
0.0399999991 0.00166666671 0
0.0366666652 0.00166666671 0
0.0333333351 0.00166666671 0
0.0299999993 0.00166666671 0
0.0266666673 0.00166666671 0
0.0233333334 0.00166666671 0
0.0199999996 0.00166666671 0
0.0166666675 0.00166666671 0
0.0133333337 0.00166666671 0
0.00999999978 0.00166666671 0
0.00666666683 0.00166666671 0
0.00333333341 0.00166666671 0
0.0 0.00166666671 0
0.100000001 -0.00166666671 0
0.0966666639 -0.00166666671 0
0.0933333337 -0.00166666671 0
0.0900000036 -0.00166666671 0
0.086666666 -0.00166666671 0
0.0833333358 -0.00166666671 0
0.0799999982 -0.00166666671 0
0.0766666681 -0.00166666671 0
0.0733333305 -0.00166666671 0
0.0700000003 -0.00166666671 0
0.0666666701 -0.00166666671 0
0.0633333325 -0.00166666671 0
0.0599999987 -0.00166666671 0
0.0566666685 -0.00166666671 0
0.0533333346 -0.00166666671 0
0.0500000007 -0.00166666671 0
0.0466666669 -0.00166666671 0
0.043333333 -0.00166666671 0
0.0399999991 -0.00166666671 0
0.0366666652 -0.00166666671 0
0.0333333351 -0.00166666671 0
0.0299999993 -0.00166666671 0
0.0266666673 -0.00166666671 0
0.0233333334 -0.00166666671 0
0.0199999996 -0.00166666671 0
0.0166666675 -0.00166666671 0
0.0133333337 -0.00166666671 0
0.00999999978 -0.00166666671 0
0.00666666683 -0.00166666671 0
0.00333333341 -0.00166666671 0
0.0 -0.00166666671 0
0.100000001 -0.00499999989 0
0.0966666639 -0.00499999989 0
0.0933333337 -0.00499999989 0
0.0900000036 -0.00499999989 0
0.086666666 -0.00499999989 0
0.0833333358 -0.00499999989 0
0.0799999982 -0.00499999989 0
0.0766666681 -0.00499999989 0
0.0733333305 -0.00499999989 0
0.0700000003 -0.00499999989 0
0.0666666701 -0.00499999989 0
0.0633333325 -0.00499999989 0
0.0599999987 -0.00499999989 0
0.0566666685 -0.00499999989 0
0.0533333346 -0.00499999989 0
0.0500000007 -0.00499999989 0
0.0466666669 -0.00499999989 0
0.043333333 -0.00499999989 0
0.0399999991 -0.00499999989 0
0.0366666652 -0.00499999989 0
0.0333333351 -0.00499999989 0
0.0299999993 -0.00499999989 0
0.0266666673 -0.00499999989 0
0.0233333334 -0.00499999989 0
0.0199999996 -0.00499999989 0
0.0166666675 -0.00499999989 0
0.0133333337 -0.00499999989 0
0.00999999978 -0.00499999989 0
0.00666666683 -0.00499999989 0
0.00333333341 -0.00499999989 0
0.0 -0.00499999989 0
0.100000001 -0.00833333377 0
0.0966666639 -0.00833333377 0
0.0933333337 -0.00833333377 0
0.0900000036 -0.00833333377 0
0.086666666 -0.00833333377 0
0.0833333358 -0.00833333377 0
0.0799999982 -0.00833333377 0
0.0766666681 -0.00833333377 0
0.0733333305 -0.00833333377 0
0.0700000003 -0.00833333377 0
0.0666666701 -0.00833333377 0
0.0633333325 -0.00833333377 0
0.0599999987 -0.00833333377 0
0.0566666685 -0.00833333377 0
0.0533333346 -0.00833333377 0
0.0500000007 -0.00833333377 0
0.0466666669 -0.00833333377 0
0.043333333 -0.00833333377 0
0.0399999991 -0.00833333377 0
0.0366666652 -0.00833333377 0
0.0333333351 -0.00833333377 0
0.0299999993 -0.00833333377 0
0.0266666673 -0.00833333377 0
0.0233333334 -0.00833333377 0
0.0199999996 -0.00833333377 0
0.0166666675 -0.00833333377 0
0.0133333337 -0.00833333377 0
0.00999999978 -0.00833333377 0
0.00666666683 -0.00833333377 0
0.00333333341 -0.00833333377 0
0.0 -0.00833333377 0
0.100000001 -0.0116666667 0
0.0966666639 -0.0116666667 0
0.0933333337 -0.0116666667 0
0.0900000036 -0.0116666667 0
0.086666666 -0.0116666667 0
0.0833333358 -0.0116666667 0
0.0799999982 -0.0116666667 0
0.0766666681 -0.0116666667 0
0.0733333305 -0.0116666667 0
0.0700000003 -0.0116666667 0
0.0666666701 -0.0116666667 0
0.0633333325 -0.0116666667 0
0.0599999987 -0.0116666667 0
0.0566666685 -0.0116666667 0
0.0533333346 -0.0116666667 0
0.0500000007 -0.0116666667 0
0.0466666669 -0.0116666667 0
0.043333333 -0.0116666667 0
0.0399999991 -0.0116666667 0
0.0366666652 -0.0116666667 0
0.0333333351 -0.0116666667 0
0.0299999993 -0.0116666667 0
0.0266666673 -0.0116666667 0
0.0233333334 -0.0116666667 0
0.0199999996 -0.0116666667 0
0.0166666675 -0.0116666667 0
0.0133333337 -0.0116666667 0
0.00999999978 -0.0116666667 0
0.00666666683 -0.0116666667 0
0.00333333341 -0.0116666667 0
0.0 -0.0116666667 0
0.100000001 -0.0149999997 0
0.0966666639 -0.0149999997 0
0.0933333337 -0.0149999997 0
0.0900000036 -0.0149999997 0
0.086666666 -0.0149999997 0
0.0833333358 -0.0149999997 0
0.0799999982 -0.0149999997 0
0.0766666681 -0.0149999997 0
0.0733333305 -0.0149999997 0
0.0700000003 -0.0149999997 0
0.0666666701 -0.0149999997 0
0.0633333325 -0.0149999997 0
0.0599999987 -0.0149999997 0
0.0566666685 -0.0149999997 0
0.0533333346 -0.0149999997 0
0.0500000007 -0.0149999997 0
0.0466666669 -0.0149999997 0
0.043333333 -0.0149999997 0
0.0399999991 -0.0149999997 0
0.0366666652 -0.0149999997 0
0.0333333351 -0.0149999997 0
0.0299999993 -0.0149999997 0
0.0266666673 -0.0149999997 0
0.0233333334 -0.0149999997 0
0.0199999996 -0.0149999997 0
0.0166666675 -0.0149999997 0
0.0133333337 -0.0149999997 0
0.00999999978 -0.0149999997 0
0.00666666683 -0.0149999997 0
0.00333333341 -0.0149999997 0
0.0 -0.0149999997 0
0.100000001 -0.0183333326 0
0.0966666639 -0.0183333326 0
0.0933333337 -0.0183333326 0
0.0900000036 -0.0183333326 0
0.086666666 -0.0183333326 0
0.0833333358 -0.0183333326 0
0.0799999982 -0.0183333326 0
0.0766666681 -0.0183333326 0
0.0733333305 -0.0183333326 0
0.0700000003 -0.0183333326 0
0.0666666701 -0.0183333326 0
0.0633333325 -0.0183333326 0
0.0599999987 -0.0183333326 0
0.0566666685 -0.0183333326 0
0.0533333346 -0.0183333326 0
0.0500000007 -0.0183333326 0
0.0466666669 -0.0183333326 0
0.043333333 -0.0183333326 0
0.0399999991 -0.0183333326 0
0.0366666652 -0.0183333326 0
0.0333333351 -0.0183333326 0
0.0299999993 -0.0183333326 0
0.0266666673 -0.0183333326 0
0.0233333334 -0.0183333326 0
0.0199999996 -0.0183333326 0
0.0166666675 -0.0183333326 0
0.0133333337 -0.0183333326 0
0.00999999978 -0.0183333326 0
0.00666666683 -0.0183333326 0
0.00333333341 -0.0183333326 0
0.0 -0.0183333326 0
0.100000001 -0.0216666665 0
0.0966666639 -0.0216666665 0
0.0933333337 -0.0216666665 0
0.0900000036 -0.0216666665 0
0.086666666 -0.0216666665 0
0.0833333358 -0.0216666665 0
0.0799999982 -0.0216666665 0
0.0766666681 -0.0216666665 0
0.0733333305 -0.0216666665 0
0.0700000003 -0.0216666665 0
0.0666666701 -0.0216666665 0
0.0633333325 -0.0216666665 0
0.0599999987 -0.0216666665 0
0.0566666685 -0.0216666665 0
0.0533333346 -0.0216666665 0
0.0500000007 -0.0216666665 0
0.0466666669 -0.0216666665 0
0.043333333 -0.0216666665 0
0.0399999991 -0.0216666665 0
0.0366666652 -0.0216666665 0
0.0333333351 -0.0216666665 0
0.0299999993 -0.0216666665 0
0.0266666673 -0.0216666665 0
0.0233333334 -0.0216666665 0
0.0199999996 -0.0216666665 0
0.0166666675 -0.0216666665 0
0.0133333337 -0.0216666665 0
0.00999999978 -0.0216666665 0
0.00666666683 -0.0216666665 0
0.00333333341 -0.0216666665 0
0.0 -0.0216666665 0
0.100000001 -0.0250000004 0
0.0966666639 -0.0250000004 0
0.0933333337 -0.0250000004 0
0.0900000036 -0.0250000004 0
0.086666666 -0.0250000004 0
0.0833333358 -0.0250000004 0
0.0799999982 -0.0250000004 0
0.0766666681 -0.0250000004 0
0.0733333305 -0.0250000004 0
0.0700000003 -0.0250000004 0
0.0666666701 -0.0250000004 0
0.0633333325 -0.0250000004 0
0.0599999987 -0.0250000004 0
0.0566666685 -0.0250000004 0
0.0533333346 -0.0250000004 0
0.0500000007 -0.0250000004 0
0.0466666669 -0.0250000004 0
0.043333333 -0.0250000004 0
0.0399999991 -0.0250000004 0
0.0366666652 -0.0250000004 0
0.0333333351 -0.0250000004 0
0.0299999993 -0.0250000004 0
0.0266666673 -0.0250000004 0
0.0233333334 -0.0250000004 0
0.0199999996 -0.0250000004 0
0.0166666675 -0.0250000004 0
0.0133333337 -0.0250000004 0
0.00999999978 -0.0250000004 0
0.00666666683 -0.0250000004 0
0.00333333341 -0.0250000004 0
0.0 -0.0250000004 0
0.100000001 -0.0283333343 0
0.0966666639 -0.0283333343 0
0.0933333337 -0.0283333343 0
0.0900000036 -0.0283333343 0
0.086666666 -0.0283333343 0
0.0833333358 -0.0283333343 0
0.0799999982 -0.0283333343 0
0.0766666681 -0.0283333343 0
0.0733333305 -0.0283333343 0
0.0700000003 -0.0283333343 0
0.0666666701 -0.0283333343 0
0.0633333325 -0.0283333343 0
0.0599999987 -0.0283333343 0
0.0566666685 -0.0283333343 0
0.0533333346 -0.0283333343 0
0.0500000007 -0.0283333343 0
0.0466666669 -0.0283333343 0
0.043333333 -0.0283333343 0
0.0399999991 -0.0283333343 0
0.0366666652 -0.0283333343 0
0.0333333351 -0.0283333343 0
0.0299999993 -0.0283333343 0
0.0266666673 -0.0283333343 0
0.0233333334 -0.0283333343 0
0.0199999996 -0.0283333343 0
0.0166666675 -0.0283333343 0
0.0133333337 -0.0283333343 0
0.00999999978 -0.0283333343 0
0.00666666683 -0.0283333343 0
0.00333333341 -0.0283333343 0
0.0 -0.0283333343 0
[...]
POINT_DATA 961
SCALARS Temp float 1
LOOKUP_TABLE default
213.15278675971027
182.73181848074123
167.48503831939198
161.2674944028455
159.11741928496008
158.4602340898058
158.27685815806737
158.22908052816615
158.21727323075874
158.21447468182626
158.21383336719816
158.21369042441628
158.21365929470824
158.21365264945038
158.213651265533
158.21365103570363
158.21365126553292
158.21365264945013
158.2136592947238
158.21369042449305
158.21383336680904
158.21447468242476
158.2172732369718
158.22908052612954
158.27685825630252
158.4602338629322
159.11741978338753
161.26749187643355
167.4850398101528
182.7318429982851
213.15278713314527
182.73184412183772
151.36684070657057
135.63805301729812
129.2197048606524
126.99878724285841
126.31957803615617
126.12997003220153
126.08054973976914
126.06833253162951
126.06543602270575
126.06477210011238
126.06462408711147
126.06459184723454
126.06458496385044
126.06458353013271
126.06458329200768
126.06458353013262
126.06458496385015
126.06459184725067
126.06462408719096
126.0647720997095
126.06543602332539
126.06833253805891
126.08054973766224
126.12997013378921
126.31957780163422
126.99878775781809
129.2197022518544
135.63805455555914
151.36686599077893
182.73184450421698
167.4850400716677
135.6380279591104
119.64983911967083
113.11649192228428
110.85252595583835
110.15924407560838
109.96548772988181
109.91493694393115
109.90242977273094
109.89946235752232
109.89878174836272
109.8986299298659
109.89859684451025
109.89858977744132
109.89858830487923
109.89858806023139
109.89858830487906
109.8985897774409
109.89859684452684
109.89862992994749
109.89878174794968
109.8994623581572
109.90242977931446
109.91493694177508
109.96548783372842
110.15924383611254
110.85252648104678
113.11648926489626
119.64984068408195
135.63805364331833
167.48504045511768
161.26749144765557
129.21967476050992
113.11648695759665
106.52801131739926
104.24169203612887
103.5405632188087
103.34435307638381
103.29310067744775
103.28040632435237
103.27739161895309
103.27669957156698
103.27654508288914
103.27651139223644
103.27650419134135
103.27650269004808
103.27650244052327
103.27650269004783
103.2765041913409
103.27651139225321
103.2765450829722
103.27669957114682
103.2773916195983
103.28040633103654
103.29310067526052
103.34435318159065
103.54056297646474
104.24169256681571
106.5280086357272
113.11648853392724
129.2197006156678
161.2674918301847
159.11741937098515
126.99876021705354
110.8525241835917
104.24169527560433
101.9454659622352
101.24054407130488
101.04305442026926
100.99141234781479
100.97860848953289
100.97556490093531
100.97486561096989
100.97470937908678
100.97467528278048
100.97466799014181
100.97466646876498
100.97466621578377
100.97466646876485
100.9746679901414
100.97467528279748
100.97470937917082
100.97486561054522
100.97556490158688
100.97860849627682
100.99141234560953
101.04305452620264
101.2405438275337
101.94546649543958
104.2416925835893
110.85252576450682
126.99878613402328
159.1174197528846
158.4602335227218
126.31955031439853
110.15924161240049
103.54056576602741
101.2405433707427
100.53402998991484
100.33595454072825
100.28411988155048
100.2712582999232
100.2681986434892
100.2674951380419
100.26733785193511
100.26730350213683
100.26729615052477
100.26729461592267
100.26729436062635
100.26729461592251
100.26729615052439
100.26730350215394
100.2673378520197
100.26749513761452
100.26819864414419
100.27125830669911
100.2841198793358
100.33595464700434
100.53402974551743
101.24054390494865
103.54056307019603
110.15924319484914
126.31957625100183
158.46023390438447
158.27685781718532
126.12994253822832
109.96548550485583
103.34435586668741
101.04305396272045
100.33595478494841
100.1376433225739
100.08572416590829
100.07283527852596
100.06976751653255
100.06906176540635
100.06890389105085
100.06886939408311
100.06886200704234
100.0688604642604
100.0688602075025
100.06886046426033
100.06886200704189
100.06886939410033
100.06890389113576
100.06906176497748
100.06976751718952
100.07283528531744
100.08572416368938
100.13764342899286
100.3359545403088
101.04305449727714
103.34435316960818
109.96548708776497
126.12996848048967
158.27685819877834
158.2290800927203
126.08052214637878
109.91493461873729
103.29310336683902
100.99141178817551
100.28412002351762
100.0857240634184
100.0337719039324
100.0208714396341
100.01779998059402
100.01709313828816
100.01693496213407
100.01690038604772
100.01689297917623
100.01689143165571
100.01689117403079
100.01689143165562
100.01689297917581
100.01690038606503
100.01693496221915
100.01709313785851
100.01779998125183
100.02087144643244
100.03377190171155
100.08572416989044
100.28411977879429
100.9914123228426
103.29310066938964
109.91493620177383
126.08054809015437
158.22908047429553
158.21727279801502
126.06830494062578
109.90242745035268
103.28040901676012
100.97860793280766
100.27125844487168
100.07283517899428
100.02087144261377
100.00796656593269
100.00489358296656
100.00418625805361
100.0040279399181
100.00399332455734
100.0039859073725
100.00398435728802
100.0039840991808
100.00398435728788
100.00398590737197
100.00399332457465
100.00402794000323
100.00418625762373
100.00489358362479
100.00796657273364
100.02087144039213
100.07283528548386
100.27125820012206
100.97860846750669
103.28040631920904
109.90242903342227
126.06833088478412
158.21727317958596
158.21447424142005
126.06540842367357
109.8994600270117
103.27739430314296
100.97556433588335
100.26819878008484
100.06976740861909
100.01779997518862
100.00489357457757
100.00182002215493
100.00111250294067
100.00095412364267
100.000919490318
100.00091206816113
100.00091051678379
100.00091025842588
100.00091051678372
100.00091206816064
100.0009194903353
100.00095412372777
100.00111250251051
100.00182002281318
100.00489358137935
100.01779997296666
100.06976751511407
100.26819853532766
100.975564870591
103.27739160556553
109.89946161008949
126.06543436792433
158.21447462299
158.21383292630352
126.06474450055146
109.89877941733067
103.27670225523609
100.97486504538305
100.26749527410303
100.06906165695376
100.01709313234417
100.0041862491255
100.0011125024018
100.00040491175432
100.00024650831884
100.00021186743027
100.00020444305514
100.0002028910715
100.00020263259184
100.00020289107137
100.00020444305463
100.00021186744749
100.00024650840399
100.0004049113242
100.00111250306009
100.00418625592762
100.01709313012213
100.06906176345035
100.26749502934376
100.97486558009285
103.27669955765221
109.89878100041041
126.06477044482385
158.21383330787347
158.2136899838788
126.06459648791521
109.89862759921232
103.27654776694555
100.97470881388941
100.26733798838907
100.0689037829917
100.01693495658469
100.00402793138467
100.00095412349884
100.00024650871387
100.00008809652482
100.00005345270193
100.00004602741151
100.00004447516385
100.00004421662923
100.00004447516375
100.000046027411
100.00005345271927
100.00008809660993
100.00024650828375
100.0009541241571
100.00402793818684
100.0169349543626
100.06890388948872
100.26733774362917
100.97470934859965
103.27654506936008
109.89862918229255
126.06462243219252
158.21369036544874
158.21365885412737
126.06456424799211
109.89859451381032
103.27651407624617
100.97467471753534
100.2673036385429
100.06886928597578
100.01690038045014
100.0039933159758
100.00091949012597
100.00021186777711
100.00005345265379
100.00001880777924
100.00001138213906
100.00000982978464
100.00000957122693
100.00000982978455
100.00001138213857
100.00001880779648
100.0000534527389
100.00021186734696
100.00091949078421
100.0039933227779
100.0169003782281
100.0688693924728
100.26730339378291
100.97467525224577
103.27651137866036
109.89859609689059
126.06459019227051
158.21365923569724
158.21365220885704
126.06455736459476
109.89858744672802
103.2765068753375
100.97466742488294
100.26729628691702
100.0688618989211
100.01689297356478
100.00398589877689
100.00091206795516
100.00020444338807
100.00004602734927
100.00001138212505
100.00000395636117
100.00000240396673
100.00000214539995
100.00000240396656
100.00000395636064
100.00001138214236
100.00004602743441
100.00020444295777
100.00091206861336
100.00398590557907
100.01689297134268
100.06886200541814
100.26729604215696
100.97466795959333
103.27650417775165
109.89858902980829
126.06458330887327
158.21365259042685
158.2136508249407
126.06455593087807
109.89858597416702
103.27650537404537
100.97466590350717
100.26729475231605
100.06886035614035
100.01689142604548
100.00398434869362
100.000910516579
100.0002028914056
100.00004447510285
100.00000982977186
100.00000240396791
100.00000085155983
100.00000059298984
100.00000085155976
100.0000024039674
100.00000982978914
100.0000444751879
100.00020289097536
100.00091051723719
100.00398435549579
100.0168914238234
100.06886046263732
100.26729450755604
100.97466643821772
103.27650267645951
109.89858755724732
126.06458187515659
158.21365120651046
158.21365059511163
126.06455569275339
109.89858572951962
103.27650512452107
100.97466565052645
100.26729449702009
100.06886009938279
100.0168911684209
100.00398409058683
100.00091025822145
100.00020263292632
100.00004421656858
100.00000957121446
100.00000214540144
100.00000059299023
100.00000033441948
100.00000059299016
100.00000214540103
100.00000957123177
100.00004421665365
100.00020263249607
100.00091025887961
100.00398409738902
100.01689116619889
100.06886020587994
100.26729425226013
100.97466618523694
103.27650242693511
109.89858731259991
126.06458163703198
158.21365097668146
158.21365082494094
126.06455593087831
109.89858597416729
103.27650537404564
100.9746659035075
100.26729475231639
100.06886035614052
100.01689142604573
100.00398434869389
100.00091051657925
100.00020289140588
100.0000444751031
100.00000982977213
100.00000240396813
100.00000085156005
100.00000059299009
100.00000085155999
100.00000240396771
100.00000982978936
100.00004447518808
100.00020289097557
100.00091051723743
100.00398435549606
100.01689142382368
100.06886046263764
100.2672945075564
100.97466643821798
103.27650267645966
109.89858755724761
126.06458187515696
158.21365120651075
158.21365220885804
126.06455736459584
109.89858744672918
103.27650687533871
100.97466742488406
100.26729628691815
100.0688618989223
100.01689297356589
100.00398589877805
100.00091206795626
100.0002044433892
100.0000460273504
100.00001138212613
100.00000395636225
100.00000240396778
100.0000021454011
100.00000240396774
100.00000395636185
100.00001138214341
100.0000460274354
100.00020444295889
100.00091206861451
100.00398590558021
100.01689297134381
100.06886200541938
100.26729604215814
100.9746679595945
103.27650417775281
109.8985890298094
126.06458330887443
158.21365259042787
158.2136588541321
126.06456424799703
109.89859451381547
103.27651407625135
100.97467471754055
100.26730363854821
100.06886928598114
100.01690038045548
100.00399331598116
100.00091949013131
100.00021186778245
100.00005345265913
100.00001880778454
100.00001138214435
100.00000982978999
100.00000957123217
100.0000098297899
100.00001138214392
100.00001880780182
100.00005345274417
100.00021186735225
100.00091949078957
100.0039933227833
100.01690037823346
100.06886939247819
100.26730339378827
100.97467525225103
103.27651137866553
109.89859609689573
126.06459019227539
158.213659235702
158.21368998390318
126.06459648794043
109.89862759923831
103.27654776697192
100.97470881391604
100.26733798841583
100.06890378301874
100.0169349566116
100.00402793141177
100.0009541235259
100.00024650874109
100.00008809655189
100.00005345272899
100.00004602743853
100.00004447519086
100.0000442166562
100.00004447519085
100.00004602743807
100.00005345274633
100.00008809663701
100.00024650831081
100.00095412418422
100.00402793821395
100.01693495438964
100.06890388951562
100.26733774365607
100.97470934862635
103.27654506938647
109.89862918231849
126.06462243221772
158.213690365473
158.21383292660093
126.06474450085929
109.89877941764638
103.27670225555718
100.97486504570762
100.26749527442959
100.06906165728145
100.01709313267244
100.004186249454
100.00111250273044
100.00040491208298
100.00024650864756
100.00021186775888
100.00020444338378
100.00020289140011
100.00020263292043
100.00020289140004
100.00020444338332
100.00021186777613
100.00024650873259
100.0004049116528
100.00111250338874
100.00418625625602
100.01709313045052
100.06906176377794
100.26749502967029
100.97486558041727
103.27669955797325
109.89878100072609
126.06477044513169
158.21383330817088
158.21447424111267
126.06540842335542
109.89946002668574
103.27739430281173
100.97556433554888
100.26819877974852
100.06976740828179
100.01779997485082
100.0048935742397
100.00182002181703
100.00111250260267
100.00095412330471
100.00091948998002
100.00091206782317
100.00091051644574
100.0009102580878
100.0009105164456
100.00091206782264
100.00091948999723
100.00095412338973
100.00111250217248
100.00182002247526
100.00489358104146
100.01779997262894
100.06976751477683
100.26819853499127
100.9755648702565
103.2773916052343
109.89946160976358
126.06543436760639
158.21447462268287
158.21727280330558
126.06830494610053
109.90242745595876
103.28040902245188
100.97860793855045
100.27125845064182
100.07283518477767
100.02087144840301
100.00796657172437
100.00489358875899
100.00418626384625
100.00402794571094
100.00399333035016
100.00398591316525
100.00398436308068
100.00398410497351
100.00398436308063
100.00398591316468
100.00399333036732
100.00402794579593
100.00418626341626
100.00489358941715
100.00796657852516
100.0208714461814
100.07283529126728
100.2712582058922
100.97860847324935
103.28040632490085
109.90242903902845
126.0683308902589
158.21727318487655
158.22908008726594
126.08052214073601
109.91493461296338
103.2931033609822
100.99141178227174
100.28412001758964
100.08572405747941
100.03377189798891
100.02087143368902
100.01779997464833
100.01709313234224
100.01693495618808
100.01690038010176
100.01689297323027
100.0168914257097
100.01689116808484
100.01689142570967
100.01689297322983
100.01690038011894
100.01693495627303
100.0170931319126
100.0177999753061
100.02087144048724
100.03377189576806
100.08572416395141
100.28411977286636
100.99141231693883
103.29310066353297
109.91493619600001
126.08054808451163
158.2290804688411
158.27685793182815
126.12994265678384
109.96548562604761
103.34435598946692
101.04305408634832
100.33595490897673
100.13764344676912
100.08572429016563
100.07283540280397
100.06976764081705
100.0690618896925
100.06890401533758
100.06886951836987
100.0688621313292
100.06886058854718
100.06886033178932
100.06886058854708
100.06886213132874
100.06886951838707
100.06890401542239
100.06906188926358
100.06976764147387
100.07283540959544
100.08572428794665
100.13764355318808
100.33595466433712
101.0430546209051
103.34435329238791
109.96548720895676
126.12996859904497
158.27685831342114
158.46023364370703
126.3195504394552
110.15924174009078
103.54056589521181
101.24054350066481
100.53403012015352
100.33595467108573
100.28412001194755
100.2712584303323
100.26819877390164
100.2674952684554
100.26733798234875
100.26730363255035
100.26729628093841
100.26729474633632
100.2672944910399
100.26729474633628
100.26729628093801
100.26730363256752
100.2673379824333
100.26749526802789
100.2681987745567
100.2712584371082
100.2841200097329
100.33595477736176
100.5340298757561
101.24054403487085
103.54056319938057
110.15924332253948
126.31957637605868
158.46023402536966
159.1174187376628
126.99875956271013
110.85252351618698
104.24169460118992
101.9454652845784
101.24054339234617
101.04305374084976
100.99141166824874
100.97860780992407
100.97556422131491
100.97486493134643
100.97470869946257
100.974674603156
100.97466731051732
100.97466578914053
100.97466553615934
100.97466578914039
100.97466731051689
100.97467460317304
100.97470869954654
100.97486493092163
100.97556422196635
100.97860781666787
100.99141166604335
101.04305384678308
101.24054314857491
101.94546581778272
104.24169190917488
110.85252509710217
126.99878547967987
159.11741911956227
161.26749360061527
129.2196769835756
113.11648922181591
106.52801360202938
104.24169432936245
103.54056551518026
103.34435537377075
103.29310297513369
103.28040862211998
103.27739391674169
103.2767018693608
103.27654738068402
103.2765136900316
103.27650648913657
103.27650498784325
103.27650473831855
103.27650498784325
103.27650648913612
103.27651369004838
103.27654738076701
103.27670186894044
103.2773939173867
103.28040862880393
103.29310297294616
103.34435547897748
103.54056527283622
104.2416948600492
106.52801092035729
113.11649079814634
129.21970283873344
161.26749398314445
167.48503683880213
135.63802462263524
119.64983572509458
113.1164885005067
110.8525225232716
110.15924063932859
109.9654842924623
109.91493350619157
109.90242633490733
109.89945891967787
109.8987783105132
109.89862649201515
109.89859340665922
109.89858633959014
109.89858486702799
109.89858462238028
109.89858486702795
109.89858633958973
109.8985934066756
109.89862649209662
109.89877831009998
109.8994589203126
109.90242634149065
109.91493350403529
109.96548439630878
110.15924039983271
110.85252304848012
113.11648584311865
119.64983728950574
135.63805030684324
167.48503722225223
182.73186448021815
151.36686170199295
135.63807434576012
129.21972633179175
126.99880876569306
126.31959957543091
126.1299915762158
126.0805712850519
126.06835407723298
126.06545756838646
126.06479364581112
126.06464563281433
126.06461339293838
126.06460650955447
126.06460507583671
126.06460483771158
126.06460507583658
126.06460650955401
126.06461339295439
126.0646456328938
126.06479364540817
126.06545756900599
126.06835408366211
126.08057128294487
126.12999167780337
126.319599340909
126.99880928065276
129.2197237229937
135.63807588402102
151.3668869862009
182.73186486259743
213.15278691809647
182.73181864201715
167.48503847958068
161.26749456171373
159.1174194432389
158.46023424790636
158.27685831612263
158.22908068621058
158.21727338880086
158.21447483986788
158.21383352523966
158.21369058245756
158.2136594527496
158.21365280749185
158.21365142357425
158.21365119374494
158.21365142357422
158.21365280749143
158.2136594527651
158.21369058253438
158.21383352485037
158.2144748404662
158.21727339501368
158.22908068417385
158.27685841435766
158.4602340210327
159.11741994166644
161.26749203530173
167.48503997034146
182.73184315956098
213.1527872915314
