# vtk DataFile Version 2.0
Unstructured Grid Example
ASCII
DATASET UNSTRUCTURED_GRID

POINTS 961 float
0.100000001 0.00499999989 0
0.0966666639 0.00499999989 0
0.0933333337 0.00499999989 0
0.0900000036 0.00499999989 0
0.086666666 0.00499999989 0
0.0833333358 0.00499999989 0
0.0799999982 0.00499999989 0
0.0766666681 0.00499999989 0
0.0733333305 0.00499999989 0
0.0700000003 0.00499999989 0
0.0666666701 0.00499999989 0
0.0633333325 0.00499999989 0
0.0599999987 0.00499999989 0
0.0566666685 0.00499999989 0
0.0533333346 0.00499999989 0
0.0500000007 0.00499999989 0
0.0466666669 0.00499999989 0
0.043333333 0.00499999989 0
0.0399999991 0.00499999989 0
0.0366666652 0.00499999989 0
0.0333333351 0.00499999989 0
0.0299999993 0.00499999989 0
0.0266666673 0.00499999989 0
0.0233333334 0.00499999989 0
0.0199999996 0.00499999989 0
0.0166666675 0.00499999989 0
0.0133333337 0.00499999989 0
0.00999999978 0.00499999989 0
0.00666666683 0.00499999989 0
0.00333333341 0.00499999989 0
0.0 0.00499999989 0
0.100000001 0.00166666671 0
0.0966666639 0.00166666671 0
0.0933333337 0.00166666671 0
0.0900000036 0.00166666671 0
0.086666666 0.00166666671 0
0.0833333358 0.00166666671 0
0.0799999982 0.00166666671 0
0.0766666681 0.00166666671 0
0.0733333305 0.00166666671 0
0.0700000003 0.00166666671 0
0.0666666701 0.00166666671 0
0.0633333325 0.00166666671 0
0.0599999987 0.00166666671 0
0.0566666685 0.00166666671 0
0.0533333346 0.00166666671 0
0.0500000007 0.00166666671 0
0.0466666669 0.00166666671 0
0.043333333 0.00166666671 0
0.0399999991 0.00166666671 0
0.0366666652 0.00166666671 0
0.0333333351 0.00166666671 0
0.0299999993 0.00166666671 0
0.0266666673 0.00166666671 0
0.0233333334 0.00166666671 0
0.0199999996 0.00166666671 0
0.0166666675 0.00166666671 0
0.0133333337 0.00166666671 0
0.00999999978 0.00166666671 0
0.00666666683 0.00166666671 0
0.00333333341 0.00166666671 0
0.0 0.00166666671 0
0.100000001 -0.00166666671 0
0.0966666639 -0.00166666671 0
0.0933333337 -0.00166666671 0
0.0900000036 -0.00166666671 0
0.086666666 -0.00166666671 0
0.0833333358 -0.00166666671 0
0.0799999982 -0.00166666671 0
0.0766666681 -0.00166666671 0
0.0733333305 -0.00166666671 0
0.0700000003 -0.00166666671 0
0.0666666701 -0.00166666671 0
0.0633333325 -0.00166666671 0
0.0599999987 -0.00166666671 0
0.0566666685 -0.00166666671 0
0.0533333346 -0.00166666671 0
0.0500000007 -0.00166666671 0
0.0466666669 -0.00166666671 0
0.043333333 -0.00166666671 0
0.0399999991 -0.00166666671 0
0.0366666652 -0.00166666671 0
0.0333333351 -0.00166666671 0
0.0299999993 -0.00166666671 0
0.0266666673 -0.00166666671 0
0.0233333334 -0.00166666671 0
0.0199999996 -0.00166666671 0
0.0166666675 -0.00166666671 0
0.0133333337 -0.00166666671 0
0.00999999978 -0.00166666671 0
0.00666666683 -0.00166666671 0
0.00333333341 -0.00166666671 0
0.0 -0.00166666671 0
0.100000001 -0.00499999989 0
0.0966666639 -0.00499999989 0
0.0933333337 -0.00499999989 0
0.0900000036 -0.00499999989 0
0.086666666 -0.00499999989 0
0.0833333358 -0.00499999989 0
0.0799999982 -0.00499999989 0
0.0766666681 -0.00499999989 0
0.0733333305 -0.00499999989 0
0.0700000003 -0.00499999989 0
0.0666666701 -0.00499999989 0
0.0633333325 -0.00499999989 0
0.0599999987 -0.00499999989 0
0.0566666685 -0.00499999989 0
0.0533333346 -0.00499999989 0
0.0500000007 -0.00499999989 0
0.0466666669 -0.00499999989 0
0.043333333 -0.00499999989 0
0.0399999991 -0.00499999989 0
0.0366666652 -0.00499999989 0
0.0333333351 -0.00499999989 0
0.0299999993 -0.00499999989 0
0.0266666673 -0.00499999989 0
0.0233333334 -0.00499999989 0
0.0199999996 -0.00499999989 0
0.0166666675 -0.00499999989 0
0.0133333337 -0.00499999989 0
0.00999999978 -0.00499999989 0
0.00666666683 -0.00499999989 0
0.00333333341 -0.00499999989 0
0.0 -0.00499999989 0
0.100000001 -0.00833333377 0
0.0966666639 -0.00833333377 0
0.0933333337 -0.00833333377 0
0.0900000036 -0.00833333377 0
0.086666666 -0.00833333377 0
0.0833333358 -0.00833333377 0
0.0799999982 -0.00833333377 0
0.0766666681 -0.00833333377 0
0.0733333305 -0.00833333377 0
0.0700000003 -0.00833333377 0
0.0666666701 -0.00833333377 0
0.0633333325 -0.00833333377 0
0.0599999987 -0.00833333377 0
0.0566666685 -0.00833333377 0
0.0533333346 -0.00833333377 0
0.0500000007 -0.00833333377 0
0.0466666669 -0.00833333377 0
0.043333333 -0.00833333377 0
0.0399999991 -0.00833333377 0
0.0366666652 -0.00833333377 0
0.0333333351 -0.00833333377 0
0.0299999993 -0.00833333377 0
0.0266666673 -0.00833333377 0
0.0233333334 -0.00833333377 0
0.0199999996 -0.00833333377 0
0.0166666675 -0.00833333377 0
0.0133333337 -0.00833333377 0
0.00999999978 -0.00833333377 0
0.00666666683 -0.00833333377 0
0.00333333341 -0.00833333377 0
0.0 -0.00833333377 0
0.100000001 -0.0116666667 0
0.0966666639 -0.0116666667 0
0.0933333337 -0.0116666667 0
0.0900000036 -0.0116666667 0
0.086666666 -0.0116666667 0
0.0833333358 -0.0116666667 0
0.0799999982 -0.0116666667 0
0.0766666681 -0.0116666667 0
0.0733333305 -0.0116666667 0
0.0700000003 -0.0116666667 0
0.0666666701 -0.0116666667 0
0.0633333325 -0.0116666667 0
0.0599999987 -0.0116666667 0
0.0566666685 -0.0116666667 0
0.0533333346 -0.0116666667 0
0.0500000007 -0.0116666667 0
0.0466666669 -0.0116666667 0
0.043333333 -0.0116666667 0
0.0399999991 -0.0116666667 0
0.0366666652 -0.0116666667 0
0.0333333351 -0.0116666667 0
0.0299999993 -0.0116666667 0
0.0266666673 -0.0116666667 0
0.0233333334 -0.0116666667 0
0.0199999996 -0.0116666667 0
0.0166666675 -0.0116666667 0
0.0133333337 -0.0116666667 0
0.00999999978 -0.0116666667 0
0.00666666683 -0.0116666667 0
0.00333333341 -0.0116666667 0
0.0 -0.0116666667 0
0.100000001 -0.0149999997 0
0.0966666639 -0.0149999997 0
0.0933333337 -0.0149999997 0
0.0900000036 -0.0149999997 0
0.086666666 -0.0149999997 0
0.0833333358 -0.0149999997 0
0.0799999982 -0.0149999997 0
0.0766666681 -0.0149999997 0
0.0733333305 -0.0149999997 0
0.0700000003 -0.0149999997 0
0.0666666701 -0.0149999997 0
0.0633333325 -0.0149999997 0
0.0599999987 -0.0149999997 0
0.0566666685 -0.0149999997 0
0.0533333346 -0.0149999997 0
0.0500000007 -0.0149999997 0
0.0466666669 -0.0149999997 0
0.043333333 -0.0149999997 0
0.0399999991 -0.0149999997 0
0.0366666652 -0.0149999997 0
0.0333333351 -0.0149999997 0
0.0299999993 -0.0149999997 0
0.0266666673 -0.0149999997 0
0.0233333334 -0.0149999997 0
0.0199999996 -0.0149999997 0
0.0166666675 -0.0149999997 0
0.0133333337 -0.0149999997 0
0.00999999978 -0.0149999997 0
0.00666666683 -0.0149999997 0
0.00333333341 -0.0149999997 0
0.0 -0.0149999997 0
0.100000001 -0.0183333326 0
0.0966666639 -0.0183333326 0
0.0933333337 -0.0183333326 0
0.0900000036 -0.0183333326 0
0.086666666 -0.0183333326 0
0.0833333358 -0.0183333326 0
0.0799999982 -0.0183333326 0
0.0766666681 -0.0183333326 0
0.0733333305 -0.0183333326 0
0.0700000003 -0.0183333326 0
0.0666666701 -0.0183333326 0
0.0633333325 -0.0183333326 0
0.0599999987 -0.0183333326 0
0.0566666685 -0.0183333326 0
0.0533333346 -0.0183333326 0
0.0500000007 -0.0183333326 0
0.0466666669 -0.0183333326 0
0.043333333 -0.0183333326 0
0.0399999991 -0.0183333326 0
0.0366666652 -0.0183333326 0
0.0333333351 -0.0183333326 0
0.0299999993 -0.0183333326 0
0.0266666673 -0.0183333326 0
0.0233333334 -0.0183333326 0
0.0199999996 -0.0183333326 0
0.0166666675 -0.0183333326 0
0.0133333337 -0.0183333326 0
0.00999999978 -0.0183333326 0
0.00666666683 -0.0183333326 0
0.00333333341 -0.0183333326 0
0.0 -0.0183333326 0
0.100000001 -0.0216666665 0
0.0966666639 -0.0216666665 0
0.0933333337 -0.0216666665 0
0.0900000036 -0.0216666665 0
0.086666666 -0.0216666665 0
0.0833333358 -0.0216666665 0
0.0799999982 -0.0216666665 0
0.0766666681 -0.0216666665 0
0.0733333305 -0.0216666665 0
0.0700000003 -0.0216666665 0
0.0666666701 -0.0216666665 0
0.0633333325 -0.0216666665 0
0.0599999987 -0.0216666665 0
0.0566666685 -0.0216666665 0
0.0533333346 -0.0216666665 0
0.0500000007 -0.0216666665 0
0.0466666669 -0.0216666665 0
0.043333333 -0.0216666665 0
0.0399999991 -0.0216666665 0
0.0366666652 -0.0216666665 0
0.0333333351 -0.0216666665 0
0.0299999993 -0.0216666665 0
0.0266666673 -0.0216666665 0
0.0233333334 -0.0216666665 0
0.0199999996 -0.0216666665 0
0.0166666675 -0.0216666665 0
0.0133333337 -0.0216666665 0
0.00999999978 -0.0216666665 0
0.00666666683 -0.0216666665 0
0.00333333341 -0.0216666665 0
0.0 -0.0216666665 0
0.100000001 -0.0250000004 0
0.0966666639 -0.0250000004 0
0.0933333337 -0.0250000004 0
0.0900000036 -0.0250000004 0
0.086666666 -0.0250000004 0
0.0833333358 -0.0250000004 0
0.0799999982 -0.0250000004 0
0.0766666681 -0.0250000004 0
0.0733333305 -0.0250000004 0
0.0700000003 -0.0250000004 0
0.0666666701 -0.0250000004 0
0.0633333325 -0.0250000004 0
0.0599999987 -0.0250000004 0
0.0566666685 -0.0250000004 0
0.0533333346 -0.0250000004 0
0.0500000007 -0.0250000004 0
0.0466666669 -0.0250000004 0
0.043333333 -0.0250000004 0
0.0399999991 -0.0250000004 0
0.0366666652 -0.0250000004 0
0.0333333351 -0.0250000004 0
0.0299999993 -0.0250000004 0
0.0266666673 -0.0250000004 0
0.0233333334 -0.0250000004 0
0.0199999996 -0.0250000004 0
0.0166666675 -0.0250000004 0
0.0133333337 -0.0250000004 0
0.00999999978 -0.0250000004 0
0.00666666683 -0.0250000004 0
0.00333333341 -0.0250000004 0
0.0 -0.0250000004 0
0.100000001 -0.0283333343 0
0.0966666639 -0.0283333343 0
0.0933333337 -0.0283333343 0
0.0900000036 -0.0283333343 0
0.086666666 -0.0283333343 0
0.0833333358 -0.0283333343 0
0.0799999982 -0.0283333343 0
0.0766666681 -0.0283333343 0
0.0733333305 -0.0283333343 0
0.0700000003 -0.0283333343 0
0.0666666701 -0.0283333343 0
0.0633333325 -0.0283333343 0
0.0599999987 -0.0283333343 0
0.0566666685 -0.0283333343 0
0.0533333346 -0.0283333343 0
0.0500000007 -0.0283333343 0
0.0466666669 -0.0283333343 0
0.043333333 -0.0283333343 0
0.0399999991 -0.0283333343 0
0.0366666652 -0.0283333343 0
0.0333333351 -0.0283333343 0
0.0299999993 -0.0283333343 0
0.0266666673 -0.0283333343 0
0.0233333334 -0.0283333343 0
0.0199999996 -0.0283333343 0
0.0166666675 -0.0283333343 0
0.0133333337 -0.0283333343 0
0.00999999978 -0.0283333343 0
0.00666666683 -0.0283333343 0
0.00333333341 -0.0283333343 0
0.0 -0.0283333343 0
[...]
POINT_DATA 961
SCALARS Temp float 1
LOOKUP_TABLE default
226.6825834174658
195.60752611566204
178.32984564210054
170.2650022362794
167.0337099174388
165.8918773965698
165.52688645230037
165.41913941538496
165.3892921287583
165.38143928523021
165.37945881415206
165.37897664777725
165.37886270338632
165.37883646317704
165.37883060654966
165.3788295824862
165.37883060654931
165.37883646317556
165.37886270344464
165.37897664804328
165.37945881291242
165.38143928696826
165.38929214502642
165.41913941044163
165.52688665698113
165.89187697747445
167.03371071075603
170.2649987047678
178.3298474129623
195.60755223950997
226.6825834190758
195.60755386483612
163.53661580530655
145.69920104564724
137.36953174484046
134.03063132008535
132.8502697025765
132.47281801551736
132.3613549568906
132.33046919721426
132.322341037486
132.32029066769755
132.3197913835881
132.3196733728733
132.3196461918781
132.31964012441608
132.3196390633789
132.3196401244157
132.31964619187647
132.31967337293375
132.31979138386353
132.32029066641397
132.32234103928522
132.3304692140498
132.36135495177578
132.47281822721294
132.85026926926082
134.0306321399644
137.36952809649546
145.69920287415246
163.53664277013075
195.6075538653359
178.32984822592383
145.6991745599843
127.53722582115147
119.04789287870192
115.641412165336
114.43591211599532
114.05005252507351
113.93600861526305
113.90438359121596
113.8960552469937
113.89395311549151
113.89344095184742
113.89331983853151
113.89329193079853
113.89328569870884
113.89328460857878
113.89328569870841
113.89329193079695
113.8933198385936
113.89344095212998
113.89395311417536
113.89605524883768
113.90438360845855
113.9360086100269
114.0500527415548
114.43591167325015
115.64141300216205
119.0478891583494
127.53722768353937
145.69920200364493
178.3298482240757
170.264998691642
137.3694986825856
119.04788640005408
110.47592644670682
107.03250084238208
105.81251217868747
105.42157172085471
105.3059031360067
105.27379622426903
105.26533345115355
105.26319566237504
105.26267442860716
105.26255108798229
105.26252264967323
105.26251629562763
105.26251518372202
105.26251629562714
105.26252264967145
105.26255108804538
105.26267442889483
105.26319566103624
105.2653334530278
105.27379624177969
105.30590313069236
105.42157194027419
105.81251173037802
107.0325016886801
110.4759226879399
119.04788827940394
137.36952635654657
170.26499868786004
167.033710725027
134.03060265210206
115.64141026086543
107.03250549334697
103.57149313684727
102.3441549187937
101.95047971073993
101.83388956467087
101.80149666315194
101.79295095862994
101.79079042944782
101.79026324318701
101.79013840403726
101.79010960092155
101.7901031614403
101.79010203407809
101.79010316143989
101.79010960091972
101.7901384041011
101.7902632434782
101.79079042809428
101.79295096052307
101.80149668082392
101.8338895593104
101.95047993177397
102.34415446757356
103.57149398777739
107.0325017167792
115.64141214752718
134.03063042128738
167.03371072021966
165.89187713294922
132.8502398901399
114.435909076655
105.81251569301101
102.34415376633417
101.11352672632916
100.71854250630028
100.6014829955608
100.56893621280393
100.56034370847397
100.55816980799345
100.55763899514905
100.55751321442851
100.55748417584606
100.55747767993242
100.55747654219459
100.557477679932
100.5574841758443
100.55751321449294
100.55763899544215
100.55816980663118
100.56034371037781
100.56893623056399
100.60148299017555
100.71854272812656
101.11352627375777
102.34415461925737
105.81251190919883
114.43591096608358
132.85026769399462
165.8918771277323
165.52688663149925
132.47278864876048
114.0500499522678
105.42157571185105
101.9504790348188
100.71854298553001
100.32299983564106
100.20572576606452
100.17310408691921
100.1644874984447
100.16230637299289
100.1617735156365
100.16164718410973
100.16161800326516
100.16161147230055
100.16161032799319
100.16161147230018
100.16161800326344
100.16164718417443
100.16177351593072
100.16230637162576
100.16448750035437
100.17310410472315
100.20572576066733
100.32300005781518
100.71854253239891
101.95047988850558
105.4215719254085
114.0500518426358
132.472816463999
165.52688662614722
165.41913939883713
132.3613253839846
113.93600583496026
105.30590691800862
101.83388867708223
100.60148326276983
100.20572555345629
100.08836315608012
100.05570849318502
100.0470806184687
100.04489591373692
100.04436199261467
100.04423536189547
100.04420610080504
100.04419954941946
100.0441984011981
100.04419954941906
100.0442061008032
100.04423536196045
100.04436199290953
100.04489591236742
100.04708062038104
100.0557085110088
100.08836315067768
100.20572577576793
100.6014828094296
101.8338895310332
105.30590313069885
113.93600772562051
132.36135320266357
165.4191393934461
165.38929212086202
132.3304396322209
113.90438081995995
105.27380001586414
101.80149578490561
100.5689364895422
100.1731038837799
100.0557085027149
100.02304065134989
100.01440795698352
100.01222162791389
100.01168719683427
100.01156041551897
100.01153111226029
100.0115245497394
100.01152339932882
100.01152454973898
100.01153111225841
100.01156041558386
100.01168719712948
100.01222162654328
100.0144079588971
100.02304066918178
100.05570849731018
100.1731041061407
100.56893603613074
101.8014966389405
105.27379622829038
113.9043827107049
132.33046745187252
165.38929211546062
165.38143925731006
132.32231145149083
113.89605245447741
105.26533722126837
101.79295005860426
100.56034396336342
100.16448727337333
100.04708060605748
100.01440793502992
100.0057733587548
100.00358635372503
100.00305169749971
100.00292484603031
100.0028955221625
100.00288895396928
100.00288780241131
100.00288895396888
100.00289552216073
100.00292484609537
100.00305169779503
100.00358635235378
100.00577336066875
100.01440795286467
100.04708060065195
100.1644874957504
100.5603435099296
101.79295091266397
105.2653334336194
113.89605434524553
132.3223392714031
165.3814392519061
165.37945878472874
132.32026108007463
113.89395032137006
105.26319943088713
101.79078952777456
100.55817006123632
100.1623061462604
100.04489589966651
100.01222160429903
100.00358635206446
100.00139908824134
100.00086434036005
100.0007374586483
100.00070812542093
100.00070155453189
100.00070040241143
100.00070155453147
100.00070812541914
100.00073745871332
100.00086434065537
100.00139908686992
100.00358635397856
100.01222162213485
100.04489589426073
100.16230636864256
100.55816960779589
101.79079038184118
105.26319564321778
113.89395221214427
132.32028890005364
165.37945877932435
165.37897661950714
132.31976179714164
113.89343815894816
105.26267819837012
101.7902623427714
100.55763924966078
100.16177329017482
100.04436197981872
100.01168717449477
100.0030516971155
100.00086434163654
100.00032955924188
100.0002026654499
100.00017332827242
100.000166756189
100.0001656038109
100.00016675618856
100.0001733282705
100.00020266551492
100.00032955953719
100.00086434026514
100.00305169902961
100.0116871923309
100.0443619744129
100.16177351255855
100.55763879621851
101.7902631968399
105.26267441069551
113.89344004972378
132.31978961713716
165.37897661410273
165.3788626749689
132.3196437862701
113.89331704547499
105.26255485758719
101.79013750345995
100.55751346877824
100.16164695848482
100.04423534893647
100.01156039301593
100.00292484548267
100.0007374597614
100.00020266528648
100.00007576701053
100.00004642828179
100.00003985570515
100.00003870321697
100.00003985570469
100.00004642827994
100.00007576707547
100.00020266558174
100.0007374583899
100.00292484739683
100.01156041085216
100.04423534353053
100.16164718086881
100.55751301533549
101.79013835752887
105.26255106991127
113.89331893625103
132.31967160626948
165.37886266956443
165.37883643471227
132.3196166052247
113.89328913769157
105.26252641922702
101.79010870029207
100.55748443014345
100.16161777758765
100.0442060877932
100.0115310897044
100.002895521562
100.00070812648117
100.00017332805594
100.00004642822884
100.00001708893302
100.00001051616668
100.00000936363463
100.00001051616617
100.00001708893117
100.00004642829384
100.00017332835137
100.0007081251096
100.00289552347616
100.01153110754066
100.04420608238728
100.1616179999716
100.55748397670051
101.7901095543611
105.2625226315508
113.89329102846762
132.31964442522496
165.37883642930768
165.37883057808912
132.31961053776695
113.89328290560631
105.26252006518612
101.79010226081546
100.55747793423444
100.16161124662763
100.04419953641231
100.01152452718829
100.00288895337347
100.00070155559685
100.00016675597738
100.00003985565692
100.00001051617136
100.00000394333851
100.00000279079062
100.00000394333811
100.0000105161695
100.00003985572194
100.00016675627266
100.0007015542253
100.00288895528769
100.01152454502454
100.0441995310064
100.16161146901173
100.55747748079158
101.79010311488462
105.26251627750986
113.89328479638242
132.3196383577674
165.37883057268445
165.37882955402725
132.3196094767314
113.89328181547789
105.26251895328232
101.79010113345502
100.55747679649845
100.161610102322
100.04419838819268
100.01152337677937
100.00288780181728
100.00070040347806
100.0001656036011
100.00003870317046
100.00000936364107
100.00000279079235
100.00000163824063
100.00000279079201
100.0000093636393
100.00003870323543
100.0001656038963
100.00070040210659
100.00288780373137
100.01152339461565
100.04419838278685
100.16161032470616
100.55747634305553
101.79010198752415
105.26251516560595
113.89328370625401
132.3196372967318
165.3788295486226
165.3788305780901
132.31961053776797
113.89328290560739
105.26252006518725
101.79010226081665
100.55747793423564
100.16161124662874
100.04419953641346
100.01152452718944
100.00288895337466
100.00070155559794
100.00016675597848
100.00003985565807
100.00001051617247
100.00000394333958
100.00000279079174
100.00000394333924
100.00001051617069
100.00003985572299
100.00016675627373
100.00070155422632
100.00288895528874
100.01152454502568
100.04419953100752
100.16161146901285
100.55747748079278
101.79010311488575
105.26251627751094
113.89328479638347
132.31963835776844
165.37883057268547
165.3788364347164
132.31961660522904
113.89328913769596
105.26252641923156
101.79010870029663
100.55748443014807
100.16161777759221
100.04420608779785
100.01153108970908
100.0028955215666
100.00070812648578
100.00017332806055
100.00004642823338
100.00001708893757
100.00001051617126
100.00000936363918
100.00001051617083
100.00001708893578
100.0000464282984
100.00017332835584
100.00070812511416
100.00289552348075
100.01153110754524
100.04420608239188
100.16161799997629
100.55748397670519
101.79010955436571
105.26252263155531
113.89329102847205
132.3196444252293
165.3788364293118
165.37886267498695
132.31964378628874
113.89331704549423
105.2625548576067
101.79013750347967
100.55751346879819
100.16164695850486
100.04423534895652
100.01156039303605
100.00292484550276
100.0007374597815
100.00020266530652
100.00007576703058
100.00004642830177
100.00003985572515
100.00003870323694
100.00003985572482
100.00004642830005
100.00007576709552
100.00020266560182
100.00073745840999
100.00292484741688
100.01156041087225
100.04423534355061
100.16164718088889
100.55751301535543
101.79013835754859
105.26255106993082
113.8933189362702
132.3196716062881
165.37886266958236
165.37897661959164
132.31976179722906
113.89343815903783
105.26267819846139
101.79026234286378
100.5576392497538
100.16177329026831
100.04436197991231
100.01168717458849
100.0030516972093
100.0008643417304
100.00032955933561
100.00020266554364
100.0001733283661
100.0001667562827
100.00016560390476
100.00016675628235
100.00017332836431
100.00020266560864
100.00032955963096
100.0008643403589
100.00305169912345
100.01168719242463
100.04436197450644
100.16177351265186
100.5576387963115
101.79026319693222
105.26267441078681
113.89344004981353
132.31978961722453
165.37897661418705
165.37945878567447
132.3202610810538
113.89395032237414
105.26319943190842
101.790789528807
100.55817006227547
100.16230614730318
100.04489590071117
100.01222160534456
100.00358635311036
100.00139908928739
100.00086434140613
100.00073745969439
100.00070812646698
100.00070155557793
100.00070040345743
100.00070155557754
100.00070812646511
100.0007374597593
100.00086434170132
100.00139908791596
100.00358635502447
100.01222162318038
100.04489589530542
100.16230636968527
100.55816960883502
101.79079038287365
105.26319564423908
113.89395221314827
132.3202889010327
165.37945878027006
165.3814392564129
132.32231145056218
113.89605245352564
105.26533722030094
101.7929500576269
100.56034396238039
100.16448727238736
100.04708060506995
100.01440793404193
100.00577335776653
100.00358635273662
100.00305169651142
100.00292484504192
100.00289552117425
100.00288895298083
100.00288780142287
100.00288895298037
100.00289552117232
100.00292484510679
100.00305169680657
100.00358635136539
100.0057733596805
100.0144079518767
100.04708059966453
100.16448749476451
100.56034350894652
101.79295091168665
105.26533343265193
113.89605434429376
132.32233927047452
165.38143925100906
165.38929213473367
132.33043964657648
113.9043808346627
105.2738000307957
101.801495799975
100.568936504687
100.17310389896228
100.05570851791428
100.02304066655638
100.01440797219256
100.01222164312387
100.01168721204462
100.01156043072925
100.01153112747065
100.01152456494975
100.01152341453911
100.01152456494931
100.01153112746869
100.01156043079406
100.01168721233961
100.01222164175314
100.01440797410605
100.0230406843881
100.05570851250964
100.17310412132322
100.56893605127559
101.80149665400985
105.273796243222
113.90438272540777
132.33046746622819
165.38929212933235
165.4191393858631
132.3613253705611
113.93600582122072
105.30590690406642
101.83388866302246
100.6014832486481
100.20572553930518
100.08836314191633
100.05570847901637
100.04708060429827
100.04489589956586
100.0443619784433
100.04423534772427
100.04420608663376
100.0441995352481
100.04419838702675
100.04419953524767
100.04420608663189
100.04423534778901
100.04436197873814
100.04489589819632
100.04708060621059
100.05570849684004
100.0883631365139
100.20572576161683
100.60148279530789
101.8338895169734
105.30590311675677
113.93600771188106
132.3613531892401
165.419139380472
165.52688687047333
132.47278889592502
114.05005020502078
105.42157596803588
101.95047929289011
100.71854324452758
100.32300009504547
100.20572602562989
100.17310434654244
100.16448775808708
100.16230663264105
100.16177377528639
100.16164744376007
100.16161826291567
100.16161173195107
100.16161058764368
100.16161173195067
100.1616182629139
100.16164744382472
100.16177377558057
100.16230663127395
100.16448775999667
100.17310436434633
100.20572602023273
100.32300031721965
100.71854279139643
101.9504801465768
105.42157218159345
114.05005209538884
132.47281671116346
165.52688686512136
165.89187735110022
132.8502401156753
114.43590930705253
105.81251592624558
102.34415400102924
101.11352696168784
100.71854274192681
100.60148323128442
100.56893644855971
100.56034394423956
100.55817004376202
100.55763923091834
100.55751345019796
100.55748441161569
100.55747791570191
100.55747677796408
100.55747791570153
100.55748441161386
100.55751345026239
100.55763923121143
100.55817004239975
100.56034394614348
100.56893646631983
100.60148322589923
100.71854296375301
101.11352650911647
102.34415485395259
105.81251214243358
114.43591119648109
132.85026791953007
165.89187734588313
167.03370970794822
134.03060160093787
115.64140918789226
107.0325044081301
103.57149204560537
102.34415382493874
101.9504786158753
101.83388846945361
101.80149556782173
101.79294986326602
101.79078933407436
101.79026214781112
101.79013730866048
101.79010850554465
101.79010206606347
101.79010093870124
101.79010206606307
101.79010850554285
101.79013730872444
101.79026214810212
101.79078933272079
101.79294986515902
101.80149558549351
101.833888464093
101.95047883690926
102.34415337371856
103.57149289653545
107.03250063156236
115.6414110745541
134.0306293701232
167.03370970314091
170.26500165984572
137.36950174884583
119.04788952648711
110.47592960503806
107.03250401537889
105.81251535760309
105.42157490190299
105.30590631775382
105.27379940622797
105.26533663317251
105.26319884441034
105.26267761064642
105.26255427002253
105.26252583171372
105.26251947766825
105.26251836576274
105.26251947766787
105.262525831712
105.2625542700857
105.26267761093409
105.26319884307135
105.26533663504664
105.27379942373835
105.30590631243922
105.42157512132235
105.81251490929353
107.03250486167694
110.47592584627108
119.04789140583688
137.36952942280678
170.26500165606387
178.32984421417837
145.6991704170491
127.5372216000378
119.04788861771357
115.64140788679502
114.43590783067889
114.05004823741837
113.93600432687128
113.90437930260903
113.89605095832749
113.8939488268097
113.89343666316164
113.89331554984466
113.89328764211146
113.89328141002174
113.89328031989166
113.89328141002134
113.89328764210974
113.89331554990662
113.8934366634442
113.89394882549345
113.89605096017127
113.90437931985134
113.936004321635
114.05004845389954
114.43590738793372
115.64140872362105
119.04788489736112
127.53722346242574
145.69919786070983
178.3298442123304
195.60757563981977
163.53663828154316
145.69922392160566
137.3695548132971
134.03065446822458
132.8502928797471
132.47284120222295
132.3613781464778
132.33049238761615
132.32236422810593
132.32031385837323
132.3198145742776
132.31969656356617
132.31966938257165
132.31966331510966
132.31966225407263
132.31966331510938
132.31966938256988
132.3196965636265
132.319814574553
132.32031385708967
132.322364229905
132.33049240445135
132.36137814136285
132.47284141391833
132.85029244643144
134.03065528810384
137.36955116495216
145.69922575011077
163.5366652463667
195.60757564031954
226.68258331924912
195.60752601355944
178.32984553678844
170.26500212905012
167.0337098093675
165.89187728820644
165.52688634385032
165.41913930691143
165.38929202027902
165.38143917674938
165.3794587056709
165.37897653929588
165.37886259490497
165.37883635469584
165.37883049806828
165.37882947400476
165.37883049806797
165.37883635469413
165.3788625949633
165.37897653956196
165.37945870443122
165.38143917848734
165.38929203654675
165.41913930196802
165.526886548531
165.89187686911112
167.03371060268483
170.2649985975385
178.3298473076502
195.60755213740762
226.6825833208591
