# vtk DataFile Version 2.0
Unstructured Grid Example
ASCII
DATASET UNSTRUCTURED_GRID

POINTS 961 float
0.100000001 0.00499999989 0
0.0966666639 0.00499999989 0
0.0933333337 0.00499999989 0
0.0900000036 0.00499999989 0
0.086666666 0.00499999989 0
0.0833333358 0.00499999989 0
0.0799999982 0.00499999989 0
0.0766666681 0.00499999989 0
0.0733333305 0.00499999989 0
0.0700000003 0.00499999989 0
0.0666666701 0.00499999989 0
0.0633333325 0.00499999989 0
0.0599999987 0.00499999989 0
0.0566666685 0.00499999989 0
0.0533333346 0.00499999989 0
0.0500000007 0.00499999989 0
0.0466666669 0.00499999989 0
0.043333333 0.00499999989 0
0.0399999991 0.00499999989 0
0.0366666652 0.00499999989 0
0.0333333351 0.00499999989 0
0.0299999993 0.00499999989 0
0.0266666673 0.00499999989 0
0.0233333334 0.00499999989 0
0.0199999996 0.00499999989 0
0.0166666675 0.00499999989 0
0.0133333337 0.00499999989 0
0.00999999978 0.00499999989 0
0.00666666683 0.00499999989 0
0.00333333341 0.00499999989 0
0.0 0.00499999989 0
0.100000001 0.00166666671 0
0.0966666639 0.00166666671 0
0.0933333337 0.00166666671 0
0.0900000036 0.00166666671 0
0.086666666 0.00166666671 0
0.0833333358 0.00166666671 0
0.0799999982 0.00166666671 0
0.0766666681 0.00166666671 0
0.0733333305 0.00166666671 0
0.0700000003 0.00166666671 0
0.0666666701 0.00166666671 0
0.0633333325 0.00166666671 0
0.0599999987 0.00166666671 0
0.0566666685 0.00166666671 0
0.0533333346 0.00166666671 0
0.0500000007 0.00166666671 0
0.0466666669 0.00166666671 0
0.043333333 0.00166666671 0
0.0399999991 0.00166666671 0
0.0366666652 0.00166666671 0
0.0333333351 0.00166666671 0
0.0299999993 0.00166666671 0
0.0266666673 0.00166666671 0
0.0233333334 0.00166666671 0
0.0199999996 0.00166666671 0
0.0166666675 0.00166666671 0
0.0133333337 0.00166666671 0
0.00999999978 0.00166666671 0
0.00666666683 0.00166666671 0
0.00333333341 0.00166666671 0
0.0 0.00166666671 0
0.100000001 -0.00166666671 0
0.0966666639 -0.00166666671 0
0.0933333337 -0.00166666671 0
0.0900000036 -0.00166666671 0
0.086666666 -0.00166666671 0
0.0833333358 -0.00166666671 0
0.0799999982 -0.00166666671 0
0.0766666681 -0.00166666671 0
0.0733333305 -0.00166666671 0
0.0700000003 -0.00166666671 0
0.0666666701 -0.00166666671 0
0.0633333325 -0.00166666671 0
0.0599999987 -0.00166666671 0
0.0566666685 -0.00166666671 0
0.0533333346 -0.00166666671 0
0.0500000007 -0.00166666671 0
0.0466666669 -0.00166666671 0
0.043333333 -0.00166666671 0
0.0399999991 -0.00166666671 0
0.0366666652 -0.00166666671 0
0.0333333351 -0.00166666671 0
0.0299999993 -0.00166666671 0
0.0266666673 -0.00166666671 0
0.0233333334 -0.00166666671 0
0.0199999996 -0.00166666671 0
0.0166666675 -0.00166666671 0
0.0133333337 -0.00166666671 0
0.00999999978 -0.00166666671 0
0.00666666683 -0.00166666671 0
0.00333333341 -0.00166666671 0
0.0 -0.00166666671 0
0.100000001 -0.00499999989 0
0.0966666639 -0.00499999989 0
0.0933333337 -0.00499999989 0
0.0900000036 -0.00499999989 0
0.086666666 -0.00499999989 0
0.0833333358 -0.00499999989 0
0.0799999982 -0.00499999989 0
0.0766666681 -0.00499999989 0
0.0733333305 -0.00499999989 0
0.0700000003 -0.00499999989 0
0.0666666701 -0.00499999989 0
0.0633333325 -0.00499999989 0
0.0599999987 -0.00499999989 0
0.0566666685 -0.00499999989 0
0.0533333346 -0.00499999989 0
0.0500000007 -0.00499999989 0
0.0466666669 -0.00499999989 0
0.043333333 -0.00499999989 0
0.0399999991 -0.00499999989 0
0.0366666652 -0.00499999989 0
0.0333333351 -0.00499999989 0
0.0299999993 -0.00499999989 0
0.0266666673 -0.00499999989 0
0.0233333334 -0.00499999989 0
0.0199999996 -0.00499999989 0
0.0166666675 -0.00499999989 0
0.0133333337 -0.00499999989 0
0.00999999978 -0.00499999989 0
0.00666666683 -0.00499999989 0
0.00333333341 -0.00499999989 0
0.0 -0.00499999989 0
0.100000001 -0.00833333377 0
0.0966666639 -0.00833333377 0
0.0933333337 -0.00833333377 0
0.0900000036 -0.00833333377 0
0.086666666 -0.00833333377 0
0.0833333358 -0.00833333377 0
0.0799999982 -0.00833333377 0
0.0766666681 -0.00833333377 0
0.0733333305 -0.00833333377 0
0.0700000003 -0.00833333377 0
0.0666666701 -0.00833333377 0
0.0633333325 -0.00833333377 0
0.0599999987 -0.00833333377 0
0.0566666685 -0.00833333377 0
0.0533333346 -0.00833333377 0
0.0500000007 -0.00833333377 0
0.0466666669 -0.00833333377 0
0.043333333 -0.00833333377 0
0.0399999991 -0.00833333377 0
0.0366666652 -0.00833333377 0
0.0333333351 -0.00833333377 0
0.0299999993 -0.00833333377 0
0.0266666673 -0.00833333377 0
0.0233333334 -0.00833333377 0
0.0199999996 -0.00833333377 0
0.0166666675 -0.00833333377 0
0.0133333337 -0.00833333377 0
0.00999999978 -0.00833333377 0
0.00666666683 -0.00833333377 0
0.00333333341 -0.00833333377 0
0.0 -0.00833333377 0
0.100000001 -0.0116666667 0
0.0966666639 -0.0116666667 0
0.0933333337 -0.0116666667 0
0.0900000036 -0.0116666667 0
0.086666666 -0.0116666667 0
0.0833333358 -0.0116666667 0
0.0799999982 -0.0116666667 0
0.0766666681 -0.0116666667 0
0.0733333305 -0.0116666667 0
0.0700000003 -0.0116666667 0
0.0666666701 -0.0116666667 0
0.0633333325 -0.0116666667 0
0.0599999987 -0.0116666667 0
0.0566666685 -0.0116666667 0
0.0533333346 -0.0116666667 0
0.0500000007 -0.0116666667 0
0.0466666669 -0.0116666667 0
0.043333333 -0.0116666667 0
0.0399999991 -0.0116666667 0
0.0366666652 -0.0116666667 0
0.0333333351 -0.0116666667 0
0.0299999993 -0.0116666667 0
0.0266666673 -0.0116666667 0
0.0233333334 -0.0116666667 0
0.0199999996 -0.0116666667 0
0.0166666675 -0.0116666667 0
0.0133333337 -0.0116666667 0
0.00999999978 -0.0116666667 0
0.00666666683 -0.0116666667 0
0.00333333341 -0.0116666667 0
0.0 -0.0116666667 0
0.100000001 -0.0149999997 0
0.0966666639 -0.0149999997 0
0.0933333337 -0.0149999997 0
0.0900000036 -0.0149999997 0
0.086666666 -0.0149999997 0
0.0833333358 -0.0149999997 0
0.0799999982 -0.0149999997 0
0.0766666681 -0.0149999997 0
0.0733333305 -0.0149999997 0
0.0700000003 -0.0149999997 0
0.0666666701 -0.0149999997 0
0.0633333325 -0.0149999997 0
0.0599999987 -0.0149999997 0
0.0566666685 -0.0149999997 0
0.0533333346 -0.0149999997 0
0.0500000007 -0.0149999997 0
0.0466666669 -0.0149999997 0
0.043333333 -0.0149999997 0
0.0399999991 -0.0149999997 0
0.0366666652 -0.0149999997 0
0.0333333351 -0.0149999997 0
0.0299999993 -0.0149999997 0
0.0266666673 -0.0149999997 0
0.0233333334 -0.0149999997 0
0.0199999996 -0.0149999997 0
0.0166666675 -0.0149999997 0
0.0133333337 -0.0149999997 0
0.00999999978 -0.0149999997 0
0.00666666683 -0.0149999997 0
0.00333333341 -0.0149999997 0
0.0 -0.0149999997 0
0.100000001 -0.0183333326 0
0.0966666639 -0.0183333326 0
0.0933333337 -0.0183333326 0
0.0900000036 -0.0183333326 0
0.086666666 -0.0183333326 0
0.0833333358 -0.0183333326 0
0.0799999982 -0.0183333326 0
0.0766666681 -0.0183333326 0
0.0733333305 -0.0183333326 0
0.0700000003 -0.0183333326 0
0.0666666701 -0.0183333326 0
0.0633333325 -0.0183333326 0
0.0599999987 -0.0183333326 0
0.0566666685 -0.0183333326 0
0.0533333346 -0.0183333326 0
0.0500000007 -0.0183333326 0
0.0466666669 -0.0183333326 0
0.043333333 -0.0183333326 0
0.0399999991 -0.0183333326 0
0.0366666652 -0.0183333326 0
0.0333333351 -0.0183333326 0
0.0299999993 -0.0183333326 0
0.0266666673 -0.0183333326 0
0.0233333334 -0.0183333326 0
0.0199999996 -0.0183333326 0
0.0166666675 -0.0183333326 0
0.0133333337 -0.0183333326 0
0.00999999978 -0.0183333326 0
0.00666666683 -0.0183333326 0
0.00333333341 -0.0183333326 0
0.0 -0.0183333326 0
0.100000001 -0.0216666665 0
0.0966666639 -0.0216666665 0
0.0933333337 -0.0216666665 0
0.0900000036 -0.0216666665 0
0.086666666 -0.0216666665 0
0.0833333358 -0.0216666665 0
0.0799999982 -0.0216666665 0
0.0766666681 -0.0216666665 0
0.0733333305 -0.0216666665 0
0.0700000003 -0.0216666665 0
0.0666666701 -0.0216666665 0
0.0633333325 -0.0216666665 0
0.0599999987 -0.0216666665 0
0.0566666685 -0.0216666665 0
0.0533333346 -0.0216666665 0
0.0500000007 -0.0216666665 0
0.0466666669 -0.0216666665 0
0.043333333 -0.0216666665 0
0.0399999991 -0.0216666665 0
0.0366666652 -0.0216666665 0
0.0333333351 -0.0216666665 0
0.0299999993 -0.0216666665 0
0.0266666673 -0.0216666665 0
0.0233333334 -0.0216666665 0
0.0199999996 -0.0216666665 0
0.0166666675 -0.0216666665 0
0.0133333337 -0.0216666665 0
0.00999999978 -0.0216666665 0
0.00666666683 -0.0216666665 0
0.00333333341 -0.0216666665 0
0.0 -0.0216666665 0
0.100000001 -0.0250000004 0
0.0966666639 -0.0250000004 0
0.0933333337 -0.0250000004 0
0.0900000036 -0.0250000004 0
0.086666666 -0.0250000004 0
0.0833333358 -0.0250000004 0
0.0799999982 -0.0250000004 0
0.0766666681 -0.0250000004 0
0.0733333305 -0.0250000004 0
0.0700000003 -0.0250000004 0
0.0666666701 -0.0250000004 0
0.0633333325 -0.0250000004 0
0.0599999987 -0.0250000004 0
0.0566666685 -0.0250000004 0
0.0533333346 -0.0250000004 0
0.0500000007 -0.0250000004 0
0.0466666669 -0.0250000004 0
0.043333333 -0.0250000004 0
0.0399999991 -0.0250000004 0
0.0366666652 -0.0250000004 0
0.0333333351 -0.0250000004 0
0.0299999993 -0.0250000004 0
0.0266666673 -0.0250000004 0
0.0233333334 -0.0250000004 0
0.0199999996 -0.0250000004 0
0.0166666675 -0.0250000004 0
0.0133333337 -0.0250000004 0
0.00999999978 -0.0250000004 0
0.00666666683 -0.0250000004 0
0.00333333341 -0.0250000004 0
0.0 -0.0250000004 0
0.100000001 -0.0283333343 0
0.0966666639 -0.0283333343 0
0.0933333337 -0.0283333343 0
0.0900000036 -0.0283333343 0
0.086666666 -0.0283333343 0
0.0833333358 -0.0283333343 0
0.0799999982 -0.0283333343 0
0.0766666681 -0.0283333343 0
0.0733333305 -0.0283333343 0
0.0700000003 -0.0283333343 0
0.0666666701 -0.0283333343 0
0.0633333325 -0.0283333343 0
0.0599999987 -0.0283333343 0
0.0566666685 -0.0283333343 0
0.0533333346 -0.0283333343 0
0.0500000007 -0.0283333343 0
0.0466666669 -0.0283333343 0
0.043333333 -0.0283333343 0
0.0399999991 -0.0283333343 0
0.0366666652 -0.0283333343 0
0.0333333351 -0.0283333343 0
0.0299999993 -0.0283333343 0
0.0266666673 -0.0283333343 0
0.0233333334 -0.0283333343 0
0.0199999996 -0.0283333343 0
0.0166666675 -0.0283333343 0
0.0133333337 -0.0283333343 0
0.00999999978 -0.0283333343 0
0.00666666683 -0.0283333343 0
0.00333333341 -0.0283333343 0
0.0 -0.0283333343 0
[...]
POINT_DATA 961
SCALARS Temp float 1
LOOKUP_TABLE default
259.1650791551304
227.37235627201102
206.500981921282
194.2834577627471
187.88751925475466
184.8713807161798
183.57778940090137
183.0679139419356
182.88132560431598
182.81733369532137
182.79659440591038
182.7901969344172
182.78830717636268
182.78777034325057
182.78762513753816
182.7875959385021
182.7876251375291
182.7877703432151
182.78830717740323
182.79019693822482
182.79659439165377
182.81733371096652
182.8813257161021
183.0679139117836
183.57779021373017
184.87137942253966
187.8875210260171
194.2834515481552
206.5009842283612
227.37238496355823
259.1650788494012
227.37238708423277
194.5040109971976
172.92404024264187
160.2897834075644
153.6744724791878
150.55426002388592
149.21575675679858
148.68807166776023
148.49492816505673
148.4286758917581
148.4072003382908
148.40057469248575
148.39861724467954
148.3980611070212
148.3979106615013
148.39788040624686
148.39791066149198
148.39806110698422
148.39861724575746
148.40057469642935
148.40720032352695
148.4286759079572
148.49492828077805
148.68807163654856
149.21575759791844
150.55425868544881
153.67447431136006
160.28977698031298
172.92404262816976
194.50404066098167
227.37238676808107
206.50098567595833
172.92401157766687
150.8726634008785
137.95752377042774
131.19204273303595
127.99938119552903
126.62907448829733
126.08856583837292
125.8906271412264
125.8226968371627
125.80066722917637
125.79386772738462
125.79185811400419
125.79128694438913
125.79113238138977
125.79110129089078
125.79113238138021
125.791286944351
125.79185811511098
125.79386773143223
125.800667214029
125.82269685377521
125.89062725984239
126.08856580638538
126.62907534959021
127.99937982559626
131.19204460720738
137.95751719854013
150.87266583882197
172.92404188474305
206.5009853528113
194.28345189556114
160.2897443833276
137.95751354665853
124.8720219089914
118.01353454019194
114.77496620533792
113.38403140627483
112.83501303644697
112.63382250292257
112.56473106576665
112.54231090016644
112.53538675441152
112.53333916134214
112.53275689387581
112.53259925363737
112.53256753363496
112.5325992536274
112.53275689383696
112.53333916246993
112.53538675853413
112.54231088474648
112.56473108266775
112.63382262351647
112.8350130039322
113.38403228077743
114.77496481517278
118.01353644063383
124.8720152483035
137.9575160160206
160.28977507098767
194.28345156823292
187.88752143427925
153.67444156056
131.19204099211524
118.01354321324892
111.1029819586705
107.8379856328036
106.43482810386995
105.8806215374971
105.67739353271833
105.60755574496923
105.5848785525757
105.57787059273596
105.57579695588652
105.57520694225927
105.57504712063648
105.57501494963348
105.57504712062654
105.57520694221975
105.57579695702881
105.57787059690945
105.58487853697466
105.60755576205746
105.67739365456333
105.88062150465106
106.43482898629412
107.83798423078998
111.10298387399983
118.01353650336122
131.19204347839383
153.67447244999173
187.88752110473766
184.87138030121235
150.5542263177458
127.99937669532561
114.77497211689122
107.83798281632599
104.5591481989148
103.14937579305165
102.59226651363471
102.38786117838467
102.31757874380772
102.29474401513126
102.28768332630878
102.28559291010039
102.28499779702608
102.2848365120691
102.28480403460966
102.28483651205897
102.28499779698645
102.28559291125218
102.28768333051431
102.29474399941785
102.31757876100895
102.38786130096108
102.5922664805963
103.1493766798236
104.55914679057257
107.83798473931404
114.77496538232326
127.99937918982931
150.55425730364996
184.87137997063147
183.57779055158557
149.215724625625
126.62907164075331
113.38403901219914
106.43482698164068
103.14937750090795
101.73632851896572
101.17772783289197
100.97269527755378
100.90216756611497
100.87924304303297
100.8721513721053
100.87005081790784
100.86945254462451
100.86929033249889
100.86925765792063
100.86929033248877
100.86945254458455
100.87005081906555
100.87215137632995
100.87924302725473
100.90216758337944
100.9726954005252
101.1777277997505
101.73632940792507
103.14937608947436
106.43482890822189
113.38403226635526
126.62907413889732
149.21575565349656
183.57779022056837
183.06791432809402
148.68803872745926
126.08856217836261
112.83501982443951
105.88061958359158
102.59226738817037
101.17772699569772
100.61842084491106
100.4130798400906
100.34242682551326
100.31945472860835
100.31234607222176
100.31023978108838
100.30963966687904
100.3094769007629
100.3094441063609
100.3094769007528
100.30963966683896
100.31023978224938
100.31234607645716
100.3194547127953
100.34242684281061
100.41307996325908
100.61842081171844
101.17772788566917
102.59226597534938
105.88062151172001
112.83501307386759
126.08856467798657
148.68806977210548
183.06791399691144
182.881326073902
148.49489530446363
125.8906235689027
112.63382938280076
105.67739166922122
102.38786214490285
100.9726945318988
100.41307993220225
100.20759853658052
100.13688615192872
100.11389061446194
100.10677327083893
100.1046639410103
100.10406281969577
100.10389974178496
100.10386687863772
100.1038997417748
100.1040628196556
100.104663942173
100.10677327507976
100.11389059863122
100.13688616924179
100.20759865984013
100.41307989898615
100.97269542230299
102.38786073150636
105.67739359796578
112.63382263039409
125.89062606908458
148.49492635533116
182.8813257426616
182.8173340280141
148.42864288713764
125.82269311926923
112.56473779861227
105.60755373200868
102.31757956033645
100.9021666696839
100.34242676676773
100.13688600092465
100.06614745703138
100.04314116145372
100.03601966984394
100.03390883338764
100.03330719486982
100.0331439517859
100.033111051451
100.03314395177577
100.03330719482966
100.03390883455124
100.03601967408737
100.04314114561478
100.06614747435152
100.13688612422341
100.34242673354153
100.90216756026017
102.31757814671799
105.60755566098193
112.56473104554121
125.82269561964809
148.42867394016594
182.81733369675518
182.79659472267647
148.4071673164189
125.80066349426006
112.54231761601206
105.58487652210772
102.29474481416035
100.87924212892032
100.31945465220322
100.11389044576501
100.04314114377148
100.02013023717927
100.01300689353532
100.01089535724071
100.01029346932661
100.01013014390456
100.01009722461278
100.01013014389436
100.01029346928634
100.01089535840462
100.01300689777996
100.02013022133667
100.04314116109462
100.11389056907942
100.319454618973
100.87924301956066
102.29474340046167
105.58487845116069
112.54231086271454
125.80066599470436
148.4071983701557
182.79659439141196
182.79019726498532
148.400541684671
125.79386400710166
112.53539348525976
105.57786857734757
102.28768414057117
100.87215047325108
100.31234601113057
100.10677311746792
100.03601966750307
100.01300690888179
100.00588279008562
100.00377094875581
100.00316894782956
100.00300558377496
100.00297265537858
100.00300558376482
100.00316894778926
100.00377094991997
100.00588279433082
100.01300689303783
100.03601968482735
100.10677324078826
100.31234597789896
100.87215136391389
102.28768272684506
105.57787050642683
112.53538673188913
125.7938665075667
148.40057273862868
182.79019693371927
182.7883075049755
148.3985842347693
125.79185439163321
112.53334589009623
105.5757949383473
102.28559372220977
100.87004991687864
100.31023971782376
100.10466378546116
100.03390882886997
100.0108953704105
100.0037709465782
100.00165898023569
100.00105693112825
100.00089355000623
100.0008606174905
100.00089354999605
100.00105693108799
100.00165898139991
100.00377095082357
100.01089535456582
100.03390884619466
100.10466390878368
100.3102396845915
100.87005080754872
102.28559230847479
105.57579686743473
112.53333913670309
125.79185689210446
148.39861528879297
182.78830717370894
182.7877706709962
148.3980280961921
125.79128322109256
112.53276362169588
105.57520492376464
102.28499860817641
100.86945164262725
100.30963960264586
100.10406266317601
100.03330718938149
100.01029348152547
100.0031689446806
100.001056930157
100.00045486174461
100.00029147353928
100.00025853927347
100.00029147352919
100.00045486170444
100.00105693132122
100.00316894892606
100.01029346568062
100.03330720670643
100.10406278649914
100.30963956941343
100.86945253329966
102.28499719443867
105.57520685285458
112.53275686829612
125.79128572156557
148.39805915023453
182.78777033972935
182.78762546537374
148.39787765076017
125.79112865818843
112.53260598155714
105.57504510224041
102.28483732331985
100.86928943060154
100.30947683663062
100.1038995853659
100.03314394639878
100.0101301562048
100.00300558072733
100.00089354913618
100.00029147364057
100.00012808275203
100.00009514780916
100.00012808274185
100.00029147360036
100.0008935503005
100.00300558497281
100.01013014035988
100.03314396372366
100.1038997086892
100.30947680339823
100.86929032127466
102.28483590958136
105.57504703133115
112.53259922815552
125.79113115866207
148.39790870480772
182.7876251341069
182.78759626638026
148.3978473955488
125.7910975677347
112.53257426160148
105.57501293128416
102.28480484590806
100.8692567560709
100.30944404227638
100.10386672226662
100.03311104611188
100.01009723696103
100.00297265237897
100.00086061666862
100.00025853942273
100.00009514785715
100.00006221274097
100.00009514784702
100.00025853938259
100.00086061783293
100.00297265662448
100.01009722111603
100.03311106343676
100.10386684558999
100.3094440090439
100.86925764674422
102.28480343216937
105.57501486037506
112.53256750819946
125.79110006820831
148.3978784495974
182.78759593511347
182.78762546539946
148.39787765078685
125.79112865821592
112.53260598158518
105.57504510226885
102.2848373233486
100.86928943063045
100.30947683665958
100.10389958539488
100.03314394642786
100.01013015623383
100.0030055807564
100.0008935491653
100.00029147366963
100.00012808278105
100.0000951478381
100.00012808277093
100.00029147362947
100.00089355032954
100.0030055850018
100.01013014038884
100.03314396375269
100.10389970871817
100.3094768034271
100.86929032130354
102.28483590961007
105.57504703135956
112.53259922818346
125.79113115868947
148.3979087048345
182.78762513413287
182.78777067108638
148.39802809628557
125.79128322118854
112.53276362179378
105.57520492386392
102.28499860827658
100.86945164272795
100.30963960274684
100.10406266327718
100.03330718948274
100.01029348162679
100.00316894478189
100.00105693025824
100.00045486184595
100.00029147364062
100.0002585393747
100.00029147363041
100.00045486180574
100.00105693142248
100.00316894902728
100.01029346578188
100.03330720680759
100.10406278660017
100.30963956951439
100.86945253340038
102.28499719453876
105.57520685295385
112.53275686839403
125.79128572166155
148.39805915032807
182.78777033981956
182.78830750529505
148.39858423510017
125.79185439197295
112.53334589044246
105.575794938698
102.28559372256342
100.87004991723408
100.31023971818023
100.10466378581822
100.03390882922717
100.01089537076784
100.00377094693562
100.00165898059306
100.00105693148555
100.0008935503636
100.00086061784788
100.00089355035345
100.00105693144538
100.00165898175729
100.00377095118094
100.01089535492312
100.0339088465519
100.10466390914058
100.31023968494793
100.87005080790408
102.28559230882844
105.5757968677855
112.5333391370493
125.79185689244433
148.39861528912377
182.78830717402835
182.79019726618833
148.40054168591683
125.79386400838042
112.5353934865622
105.57786857866604
102.28768414189983
100.87215047458595
100.31234601246868
100.1067731188078
100.0360196688437
100.01300691022281
100.00588279142674
100.00377095009702
100.00316894917067
100.0030055851161
100.00297265671969
100.00300558510594
100.00316894913038
100.0037709512611
100.00588279567182
100.01300689437872
100.0360196861679
100.10677324212807
100.31234597923694
100.87215136524853
102.28768272817372
105.57787050774526
112.53538673319157
125.79386650884553
148.40057273987458
182.79019693492222
182.79659473344265
148.40716732756803
125.80066350569876
112.54231762765596
105.58487653388788
102.2947448260249
100.87924214083351
100.3194546641425
100.11389045771737
100.04314115572986
100.02013024914035
100.01300690549746
100.01089536920327
100.01029348128925
100.01013015586726
100.0100972365755
100.0101301558571
100.01029348124901
100.01089537036718
100.01300690974199
100.02013023329772
100.04314117305303
100.11389058103177
100.31945463091235
100.87924303147373
102.29474341232606
105.58487846294075
112.54231087435838
125.80066600614305
148.4071983813048
182.79659440217813
182.8173340196896
148.4286428785182
125.82269311042913
112.56473778961775
105.60755372291338
102.31757955118006
100.90216666049314
100.34242675755904
100.13688599170722
100.06614744781
100.04314115223058
100.03601966062018
100.0339088241636
100.0333071856458
100.03314394256175
100.0331110422268
100.03314394255159
100.0333071856056
100.03390882532712
100.03601966486353
100.04314113639158
100.06614746513011
100.13688611500588
100.34242672433268
100.90216755106937
102.31757813756158
105.60755565188666
112.56473103654663
125.82269561080791
148.42867393154657
182.81733368843072
182.88132616977995
148.49489540371727
125.89062367064024
112.63382948623672
105.67739177373248
102.38786225004328
100.97269463737942
100.41308003785291
100.20759864230993
100.13688625769194
100.11389072023876
100.10677337662088
100.10466404679408
100.10406292548022
100.10389984756948
100.10386698442238
100.10389984755928
100.10406292544005
100.10466404795673
100.10677338086164
100.11389070440792
100.13688627500505
100.20759876556946
100.41308000463671
100.97269552778363
102.3878608366469
105.67739370247702
112.63382273383009
125.89062617082226
148.49492645458483
182.8813258385396
183.06791425584115
148.68803865267287
126.0885621017328
112.83501974656855
105.88061950494954
102.5922673090871
101.17772691638174
100.6184207654819
100.41307976061042
100.3424267460118
100.31945464909852
100.31234599270874
100.31023970157437
100.30963958736464
100.30947682124842
100.30944402684631
100.30947682123838
100.30963958732458
100.31023970273525
100.3123459969441
100.31945463328528
100.34242676330902
100.41307988377888
100.61842073228915
101.17772780635316
102.59226589626608
105.88062143307802
112.83501299599662
126.08856460135695
148.68806969731912
183.06791392465843
183.5777915029151
149.2157256100688
126.62907264881369
113.38404003572875
106.43482801445052
103.14937853881366
101.73632955943665
101.17772887455074
100.97269631972087
100.90216860848429
100.8792440854776
100.87215241457622
100.87005186038756
100.86945358710688
100.86929137498213
100.86925870040407
100.86929137497205
100.86945358706703
100.87005186154519
100.87215241880085
100.87924406969925
100.9021686257487
100.97269644269221
101.1777288414092
101.73633044839598
103.14937712738013
106.43482994103168
113.384033289885
126.6290751469577
149.21575663794036
183.57779117189813
184.8713809166271
150.55422695442152
127.99937734685155
114.77497277786925
107.83798348277494
104.55914886824561
103.1493764637688
102.59226718496402
102.38786184996384
102.31757941548194
102.29474468683931
102.28768399802817
102.28559358182355
102.28499846875036
102.28483718379358
102.28480470633421
102.2848371837836
102.28499846871064
102.28559358297534
102.28768400223379
102.29474467112601
102.31757943268313
102.3878619725403
102.59226715192561
103.14937735054073
104.55914745990349
107.83798540576309
114.77496604330143
127.99937984135542
150.55425794032584
184.8713805860462
187.88751909325202
153.67443913896702
131.1920385148474
118.01354070104956
111.1029794265989
107.83798309046297
106.43482555668784
105.88061898821971
105.6773909826022
105.60755319454034
105.58487600203739
105.57786804216136
105.57579440530048
105.57520439166963
105.57504457004599
105.57501239904269
105.57504457003606
105.5752043916303
105.5757944064428
105.57786804633476
105.58487598643623
105.60755321162851
105.67739110444722
105.88061895537349
106.43482643911202
107.83798168844929
111.1029813419283
118.01353399116194
131.192041001126
153.67447002839876
187.88751876371032
194.28345695525334
160.28974961604396
137.9575188968347
124.87202733110361
118.01354000204437
114.77497168706407
113.3840368970539
112.83501853101166
112.63382799895301
112.56473656232683
112.54231639690695
112.53539225120993
112.5333446581585
112.53276239069731
112.53260475046024
112.53257303045825
112.53260475045049
112.53276239065843
112.53334465928621
112.53539225533254
112.54231638148677
112.56473657922774
112.63382811954658
112.83501849849668
113.38403777155636
114.77497029689894
118.01354190248625
124.87202067041572
137.95752136619674
160.28978030370385
194.28345662792512
206.50098000900516
172.92400571771472
150.87265741140942
137.9575177028788
131.19203662317292
127.99937506495681
126.6290683485046
126.08855969481236
125.89062099623969
125.82269069167127
125.80066108351674
125.79386158167168
125.79185196827517
125.79128079865524
125.79112623565467
125.79109514515541
125.79112623564511
125.79128079861718
125.79185196938175
125.79386158571928
125.80066106836918
125.82269070828376
125.89062111485529
126.08855966282445
126.6290692097972
127.99937369502398
131.19203849734436
137.9575111309912
150.87265984935294
172.92403602479106
206.50097968585814
227.3724111001561
194.5040358269574
172.92406561094813
160.28980909452457
153.6744983351023
150.55428596058408
149.21578272863755
148.68809765364378
148.4949541561483
148.42870188465807
148.40722633178356
148.40060068616324
148.39864323841232
148.3980871007698
148.39793665525409
148.39790640000055
148.3979366552447
148.3980871007327
148.3986432394902
148.40060069010696
148.40722631701956
148.42870190085702
148.49495427186937
148.68809762243174
149.21578356975732
150.55428462214687
153.67450016727452
160.28980266727334
172.92406799647588
194.50406549074071
227.37241078400413
259.16507893364246
227.37235604304948
206.5009816874464
194.28345752610366
187.88751901668408
184.87138047746552
183.57778916192638
183.06791370286433
182.8813253652119
182.81733345620663
182.79659416679254
182.79019669529842
182.7883069372436
182.78777010413174
182.7876248984191
182.78759569938285
182.78762489841006
182.78777010409573
182.78830693828422
182.790196699106
182.79659415253587
182.81733347185167
182.8813254769977
183.06791367271208
183.57778997475504
184.8713791838255
187.88752078794664
194.2834513115118
206.50098399452557
227.37238473459678
259.16507862791315
