# vtk DataFile Version 2.0
Unstructured Grid Example
ASCII
DATASET UNSTRUCTURED_GRID

POINTS 961 float
0.100000001 0.00499999989 0
0.0966666639 0.00499999989 0
0.0933333337 0.00499999989 0
0.0900000036 0.00499999989 0
0.086666666 0.00499999989 0
0.0833333358 0.00499999989 0
0.0799999982 0.00499999989 0
0.0766666681 0.00499999989 0
0.0733333305 0.00499999989 0
0.0700000003 0.00499999989 0
0.0666666701 0.00499999989 0
0.0633333325 0.00499999989 0
0.0599999987 0.00499999989 0
0.0566666685 0.00499999989 0
0.0533333346 0.00499999989 0
0.0500000007 0.00499999989 0
0.0466666669 0.00499999989 0
0.043333333 0.00499999989 0
0.0399999991 0.00499999989 0
0.0366666652 0.00499999989 0
0.0333333351 0.00499999989 0
0.0299999993 0.00499999989 0
0.0266666673 0.00499999989 0
0.0233333334 0.00499999989 0
0.0199999996 0.00499999989 0
0.0166666675 0.00499999989 0
0.0133333337 0.00499999989 0
0.00999999978 0.00499999989 0
0.00666666683 0.00499999989 0
0.00333333341 0.00499999989 0
0.0 0.00499999989 0
0.100000001 0.00166666671 0
0.0966666639 0.00166666671 0
0.0933333337 0.00166666671 0
0.0900000036 0.00166666671 0
0.086666666 0.00166666671 0
0.0833333358 0.00166666671 0
0.0799999982 0.00166666671 0
0.0766666681 0.00166666671 0
0.0733333305 0.00166666671 0
0.0700000003 0.00166666671 0
0.0666666701 0.00166666671 0
0.0633333325 0.00166666671 0
0.0599999987 0.00166666671 0
0.0566666685 0.00166666671 0
0.0533333346 0.00166666671 0
0.0500000007 0.00166666671 0
0.0466666669 0.00166666671 0
0.043333333 0.00166666671 0
0.0399999991 0.00166666671 0
0.0366666652 0.00166666671 0
0.0333333351 0.00166666671 0
0.0299999993 0.00166666671 0
0.0266666673 0.00166666671 0
0.0233333334 0.00166666671 0
0.0199999996 0.00166666671 0
0.0166666675 0.00166666671 0
0.0133333337 0.00166666671 0
0.00999999978 0.00166666671 0
0.00666666683 0.00166666671 0
0.00333333341 0.00166666671 0
0.0 0.00166666671 0
0.100000001 -0.00166666671 0
0.0966666639 -0.00166666671 0
0.0933333337 -0.00166666671 0
0.0900000036 -0.00166666671 0
0.086666666 -0.00166666671 0
0.0833333358 -0.00166666671 0
0.0799999982 -0.00166666671 0
0.0766666681 -0.00166666671 0
0.0733333305 -0.00166666671 0
0.0700000003 -0.00166666671 0
0.0666666701 -0.00166666671 0
0.0633333325 -0.00166666671 0
0.0599999987 -0.00166666671 0
0.0566666685 -0.00166666671 0
0.0533333346 -0.00166666671 0
0.0500000007 -0.00166666671 0
0.0466666669 -0.00166666671 0
0.043333333 -0.00166666671 0
0.0399999991 -0.00166666671 0
0.0366666652 -0.00166666671 0
0.0333333351 -0.00166666671 0
0.0299999993 -0.00166666671 0
0.0266666673 -0.00166666671 0
0.0233333334 -0.00166666671 0
0.0199999996 -0.00166666671 0
0.0166666675 -0.00166666671 0
0.0133333337 -0.00166666671 0
0.00999999978 -0.00166666671 0
0.00666666683 -0.00166666671 0
0.00333333341 -0.00166666671 0
0.0 -0.00166666671 0
0.100000001 -0.00499999989 0
0.0966666639 -0.00499999989 0
0.0933333337 -0.00499999989 0
0.0900000036 -0.00499999989 0
0.086666666 -0.00499999989 0
0.0833333358 -0.00499999989 0
0.0799999982 -0.00499999989 0
0.0766666681 -0.00499999989 0
0.0733333305 -0.00499999989 0
0.0700000003 -0.00499999989 0
0.0666666701 -0.00499999989 0
0.0633333325 -0.00499999989 0
0.0599999987 -0.00499999989 0
0.0566666685 -0.00499999989 0
0.0533333346 -0.00499999989 0
0.0500000007 -0.00499999989 0
0.0466666669 -0.00499999989 0
0.043333333 -0.00499999989 0
0.0399999991 -0.00499999989 0
0.0366666652 -0.00499999989 0
0.0333333351 -0.00499999989 0
0.0299999993 -0.00499999989 0
0.0266666673 -0.00499999989 0
0.0233333334 -0.00499999989 0
0.0199999996 -0.00499999989 0
0.0166666675 -0.00499999989 0
0.0133333337 -0.00499999989 0
0.00999999978 -0.00499999989 0
0.00666666683 -0.00499999989 0
0.00333333341 -0.00499999989 0
0.0 -0.00499999989 0
0.100000001 -0.00833333377 0
0.0966666639 -0.00833333377 0
0.0933333337 -0.00833333377 0
0.0900000036 -0.00833333377 0
0.086666666 -0.00833333377 0
0.0833333358 -0.00833333377 0
0.0799999982 -0.00833333377 0
0.0766666681 -0.00833333377 0
0.0733333305 -0.00833333377 0
0.0700000003 -0.00833333377 0
0.0666666701 -0.00833333377 0
0.0633333325 -0.00833333377 0
0.0599999987 -0.00833333377 0
0.0566666685 -0.00833333377 0
0.0533333346 -0.00833333377 0
0.0500000007 -0.00833333377 0
0.0466666669 -0.00833333377 0
0.043333333 -0.00833333377 0
0.0399999991 -0.00833333377 0
0.0366666652 -0.00833333377 0
0.0333333351 -0.00833333377 0
0.0299999993 -0.00833333377 0
0.0266666673 -0.00833333377 0
0.0233333334 -0.00833333377 0
0.0199999996 -0.00833333377 0
0.0166666675 -0.00833333377 0
0.0133333337 -0.00833333377 0
0.00999999978 -0.00833333377 0
0.00666666683 -0.00833333377 0
0.00333333341 -0.00833333377 0
0.0 -0.00833333377 0
0.100000001 -0.0116666667 0
0.0966666639 -0.0116666667 0
0.0933333337 -0.0116666667 0
0.0900000036 -0.0116666667 0
0.086666666 -0.0116666667 0
0.0833333358 -0.0116666667 0
0.0799999982 -0.0116666667 0
0.0766666681 -0.0116666667 0
0.0733333305 -0.0116666667 0
0.0700000003 -0.0116666667 0
0.0666666701 -0.0116666667 0
0.0633333325 -0.0116666667 0
0.0599999987 -0.0116666667 0
0.0566666685 -0.0116666667 0
0.0533333346 -0.0116666667 0
0.0500000007 -0.0116666667 0
0.0466666669 -0.0116666667 0
0.043333333 -0.0116666667 0
0.0399999991 -0.0116666667 0
0.0366666652 -0.0116666667 0
0.0333333351 -0.0116666667 0
0.0299999993 -0.0116666667 0
0.0266666673 -0.0116666667 0
0.0233333334 -0.0116666667 0
0.0199999996 -0.0116666667 0
0.0166666675 -0.0116666667 0
0.0133333337 -0.0116666667 0
0.00999999978 -0.0116666667 0
0.00666666683 -0.0116666667 0
0.00333333341 -0.0116666667 0
0.0 -0.0116666667 0
0.100000001 -0.0149999997 0
0.0966666639 -0.0149999997 0
0.0933333337 -0.0149999997 0
0.0900000036 -0.0149999997 0
0.086666666 -0.0149999997 0
0.0833333358 -0.0149999997 0
0.0799999982 -0.0149999997 0
0.0766666681 -0.0149999997 0
0.0733333305 -0.0149999997 0
0.0700000003 -0.0149999997 0
0.0666666701 -0.0149999997 0
0.0633333325 -0.0149999997 0
0.0599999987 -0.0149999997 0
0.0566666685 -0.0149999997 0
0.0533333346 -0.0149999997 0
0.0500000007 -0.0149999997 0
0.0466666669 -0.0149999997 0
0.043333333 -0.0149999997 0
0.0399999991 -0.0149999997 0
0.0366666652 -0.0149999997 0
0.0333333351 -0.0149999997 0
0.0299999993 -0.0149999997 0
0.0266666673 -0.0149999997 0
0.0233333334 -0.0149999997 0
0.0199999996 -0.0149999997 0
0.0166666675 -0.0149999997 0
0.0133333337 -0.0149999997 0
0.00999999978 -0.0149999997 0
0.00666666683 -0.0149999997 0
0.00333333341 -0.0149999997 0
0.0 -0.0149999997 0
0.100000001 -0.0183333326 0
0.0966666639 -0.0183333326 0
0.0933333337 -0.0183333326 0
0.0900000036 -0.0183333326 0
0.086666666 -0.0183333326 0
0.0833333358 -0.0183333326 0
0.0799999982 -0.0183333326 0
0.0766666681 -0.0183333326 0
0.0733333305 -0.0183333326 0
0.0700000003 -0.0183333326 0
0.0666666701 -0.0183333326 0
0.0633333325 -0.0183333326 0
0.0599999987 -0.0183333326 0
0.0566666685 -0.0183333326 0
0.0533333346 -0.0183333326 0
0.0500000007 -0.0183333326 0
0.0466666669 -0.0183333326 0
0.043333333 -0.0183333326 0
0.0399999991 -0.0183333326 0
0.0366666652 -0.0183333326 0
0.0333333351 -0.0183333326 0
0.0299999993 -0.0183333326 0
0.0266666673 -0.0183333326 0
0.0233333334 -0.0183333326 0
0.0199999996 -0.0183333326 0
0.0166666675 -0.0183333326 0
0.0133333337 -0.0183333326 0
0.00999999978 -0.0183333326 0
0.00666666683 -0.0183333326 0
0.00333333341 -0.0183333326 0
0.0 -0.0183333326 0
0.100000001 -0.0216666665 0
0.0966666639 -0.0216666665 0
0.0933333337 -0.0216666665 0
0.0900000036 -0.0216666665 0
0.086666666 -0.0216666665 0
0.0833333358 -0.0216666665 0
0.0799999982 -0.0216666665 0
0.0766666681 -0.0216666665 0
0.0733333305 -0.0216666665 0
0.0700000003 -0.0216666665 0
0.0666666701 -0.0216666665 0
0.0633333325 -0.0216666665 0
0.0599999987 -0.0216666665 0
0.0566666685 -0.0216666665 0
0.0533333346 -0.0216666665 0
0.0500000007 -0.0216666665 0
0.0466666669 -0.0216666665 0
0.043333333 -0.0216666665 0
0.0399999991 -0.0216666665 0
0.0366666652 -0.0216666665 0
0.0333333351 -0.0216666665 0
0.0299999993 -0.0216666665 0
0.0266666673 -0.0216666665 0
0.0233333334 -0.0216666665 0
0.0199999996 -0.0216666665 0
0.0166666675 -0.0216666665 0
0.0133333337 -0.0216666665 0
0.00999999978 -0.0216666665 0
0.00666666683 -0.0216666665 0
0.00333333341 -0.0216666665 0
0.0 -0.0216666665 0
0.100000001 -0.0250000004 0
0.0966666639 -0.0250000004 0
0.0933333337 -0.0250000004 0
0.0900000036 -0.0250000004 0
0.086666666 -0.0250000004 0
0.0833333358 -0.0250000004 0
0.0799999982 -0.0250000004 0
0.0766666681 -0.0250000004 0
0.0733333305 -0.0250000004 0
0.0700000003 -0.0250000004 0
0.0666666701 -0.0250000004 0
0.0633333325 -0.0250000004 0
0.0599999987 -0.0250000004 0
0.0566666685 -0.0250000004 0
0.0533333346 -0.0250000004 0
0.0500000007 -0.0250000004 0
0.0466666669 -0.0250000004 0
0.043333333 -0.0250000004 0
0.0399999991 -0.0250000004 0
0.0366666652 -0.0250000004 0
0.0333333351 -0.0250000004 0
0.0299999993 -0.0250000004 0
0.0266666673 -0.0250000004 0
0.0233333334 -0.0250000004 0
0.0199999996 -0.0250000004 0
0.0166666675 -0.0250000004 0
0.0133333337 -0.0250000004 0
0.00999999978 -0.0250000004 0
0.00666666683 -0.0250000004 0
0.00333333341 -0.0250000004 0
0.0 -0.0250000004 0
0.100000001 -0.0283333343 0
0.0966666639 -0.0283333343 0
0.0933333337 -0.0283333343 0
0.0900000036 -0.0283333343 0
0.086666666 -0.0283333343 0
0.0833333358 -0.0283333343 0
0.0799999982 -0.0283333343 0
0.0766666681 -0.0283333343 0
0.0733333305 -0.0283333343 0
0.0700000003 -0.0283333343 0
0.0666666701 -0.0283333343 0
0.0633333325 -0.0283333343 0
0.0599999987 -0.0283333343 0
0.0566666685 -0.0283333343 0
0.0533333346 -0.0283333343 0
0.0500000007 -0.0283333343 0
0.0466666669 -0.0283333343 0
0.043333333 -0.0283333343 0
0.0399999991 -0.0283333343 0
0.0366666652 -0.0283333343 0
0.0333333351 -0.0283333343 0
0.0299999993 -0.0283333343 0
0.0266666673 -0.0283333343 0
0.0233333334 -0.0283333343 0
0.0199999996 -0.0283333343 0
0.0166666675 -0.0283333343 0
0.0133333337 -0.0283333343 0
0.00999999978 -0.0283333343 0
0.00666666683 -0.0283333343 0
0.00333333341 -0.0283333343 0
0.0 -0.0283333343 0
[...]
POINT_DATA 961
SCALARS Temp float 1
LOOKUP_TABLE default
268.24068900501436
236.39057279618123
214.78630502374568
201.5553009714275
194.2316937261848
190.55104405341186
188.8599500931998
188.14394605962298
187.8622648638134
187.7584756697307
187.7223929729509
187.71047877516799
187.70672093913296
187.7055843865823
187.70525875418537
187.70519054003415
187.70525875416465
187.70558438650448
187.70672094125038
187.71047878242476
187.72239294739595
187.75847569588666
187.86226503714934
188.14394601373064
188.85995118773613
190.55104240978153
194.23169581043425
201.55529402106575
214.78630744826276
236.39060196897293
268.2406886900126
236.39060413052312
203.45074938004808
181.10536837013512
167.41887998178987
159.8420755272776
156.0335695809391
154.28343720259227
153.5423102222137
153.2506965805445
153.14323026818545
153.1058634614281
153.09352347292904
153.08963081039246
153.08845333110028
153.0881159347948
153.08804525079935
153.08811593477336
153.08845333101962
153.08963081258585
153.0935234804454
153.10586343496186
153.14323029526992
153.2506967600033
153.5423101747021
154.28343833542135
156.03356788004325
159.84207768373358
167.4188727915645
181.10537087792272
203.4507795521702
236.39060380473347
214.78630897308568
181.10533931496582
158.25224896112414
144.250638349423
136.49657607354268
132.59737792608954
130.804788741929
130.0453442614821
129.74639095174052
129.63617242593838
129.59783287041571
129.58516669627065
129.58116966781714
129.5799602036112
129.57961353551212
129.57954089355488
129.57961353548995
129.57996020352826
129.58116967006964
129.58516670398654
129.5978328432558
129.63617245372154
129.746391135746
130.04534421277177
130.80478990245624
132.59737618423927
136.49657828083775
144.25063099210482
158.2522515261494
181.10537016900145
214.78630863994954
201.55529438280362
167.4188395733875
144.25062713844758
130.05081305287652
122.18346110373369
118.22525801497811
116.40452542676121
115.63270886835163
115.32870679879407
115.21656188068374
115.17753025253838
115.1646284633099
115.16055498436283
115.15932178780466
115.15896816203066
115.15889403942039
115.15896816200805
115.15932178771983
115.16055498665864
115.16462847117093
115.17753022488142
115.21656190895945
115.32870698594817
115.63270881881455
116.40452660579525
118.22525624618211
122.18346334377374
130.05080558947958
144.25062973916138
167.4188708484373
201.55529404516446
194.2316962427721
159.842044285895
136.49657446913852
122.18347094147448
114.25009426790267
110.25674523068818
108.41885772825067
107.63932133082662
107.33209595510723
107.21869389450227
107.17920121043836
107.16613941175483
107.16201308500425
107.16076321444409
107.16040463013545
107.16032944203273
107.16040463011257
107.16076321435813
107.16201308733037
107.16613941971484
107.1792011824474
107.21869392310231
107.33209614428827
107.63932128075986
108.41885891867834
110.25674344561615
114.25009652720802
122.18346341675893
136.4965770900394
159.8420757962764
194.231695902656
190.55104344559274
156.03353497835366
132.59737299527796
118.22526452432093
110.25674182971568
106.2442147081094
104.39671413720382
103.61273219281863
103.30359978113911
103.18943426775553
103.14965457152023
103.13649083224168
103.13233010639873
103.13106916694153
103.13070723365374
103.13063131746124
103.13070723363063
103.1310691668549
103.13233010874471
103.13649084026527
103.14965454331896
103.18943429655484
103.30359997153151
103.61273214243683
104.39671533409091
106.24421291401114
110.2567440993872
118.22525696726501
132.59737562657273
156.03356660830707
190.55104310425256
188.85995154268036
154.2834046695214
130.8047859840857
116.40453416632364
108.41885655756317
104.39671638729311
102.54425568198346
101.75790965449693
101.44773184737008
101.3331352089148
101.29318875802706
101.2799641801814
101.27578240465908
101.27451453404326
101.27415046084876
101.27407407303397
101.27415046082558
101.27451453395607
101.27578240701733
101.2799641882433
101.2931887297021
101.33313523782806
101.44773203843434
101.75790960394144
102.54425688224696
104.39671458858936
108.41885883235337
116.40452659363788
130.8047886202796
154.2834363550499
188.85995120079355
188.14394648389413
153.54227660254324
130.0453404132332
115.63271651033739
107.63931904255871
103.6127333230013
101.75790852852879
100.97039911412334
100.65968975008313
100.5448666537096
100.5048298037243
100.49157123749168
100.48737736477828
100.48610540510208
100.48574004002806
100.48566336304081
100.48574004000479
100.48610540501448
100.48737736714364
100.49157124557537
100.50482977533137
100.5448666826836
100.65968994149328
100.97039906347885
101.75790973042382
103.6127315221277
107.63932131967965
115.63270893068923
130.0453430515558
153.54230831187797
188.14394614178534
187.86226542622265
153.25066309375697
129.74638724883272
115.3287145928616
107.33209381672107
103.30360106381664
101.44773087318633
100.65968990285464
100.3487292583613
100.23379536414332
100.19371276025619
100.18043641870759
100.17623601931392
100.17496178845836
100.17459568719725
100.17451884256246
100.17459568717402
100.17496178837064
100.17623602168312
100.18043642680263
100.19371273182828
100.23379539314747
100.34872944993727
100.65968985216767
101.447732075813
103.30359926199469
107.3320960948266
115.32870701033578
129.74638988801433
153.25069481256475
187.86226508403038
187.7584760201869
153.14319655817766
129.63616849751668
115.2165694469844
107.21869152436135
103.18943531783057
101.33313400077198
100.5448665723838
100.23379512977499
100.1188106238992
100.07870636687684
100.06542131599575
100.0612176100673
100.05994219177943
100.05957569472437
100.059498758258
100.05957569470111
100.05994219169166
100.06121761243853
100.06542132409643
100.07870633843194
100.11881065291732
100.23379532142498
100.54486652167793
101.33313520370473
103.18943351562193
107.21869380285523
115.21656186334711
129.63617113702284
153.14322828051465
187.75847567796578
187.72239329545084
153.10582972114125
129.59782891210375
115.17753778898597
107.17919880953211
103.1496555908416
101.29318751879077
100.5048296913443
100.19371249476754
100.07870633577686
100.03859247488134
100.0253034199139
100.02109813959065
100.01982213671288
100.01945543891779
100.01937845494176
100.01945543889448
100.01982213662505
100.02109814196268
100.02530342801717
100.03859244642886
100.07870636480109
100.19371268644856
100.50482964063066
101.29318872184356
103.14965378848503
107.17920108816998
115.1775302049449
129.59783155172536
153.10586144471802
187.72239295322035
187.71047912271933
153.09348975814515
129.58516276452426
115.1646360270102
107.1661370382407
103.1364918792481
101.27996296867717
100.49157115295317
100.18043618108395
100.06542131279288
100.0253034478219
100.01201266171408
100.00780667578233
100.00653040166213
100.00616360778773
100.00608660059721
100.00616360776438
100.00653040157421
100.00780667815485
100.01201266981855
100.02530341936634
100.06542134181964
100.18043637277724
100.49157110223645
101.27996417177444
103.13649007683807
107.16613931692902
115.16462844283025
129.58516540418495
153.09352148213526
187.71047878048597
187.7067212830588
153.08959709171305
129.58116573219715
115.16056254418189
107.16201070749776
103.13233114941022
101.27578118911516
100.48737727620404
100.1762357776448
100.06121760282194
100.0210981634563
100.00780667173807
100.00360038762356
100.00232399477171
100.00195715748556
100.00188013958302
100.00195715746217
100.00232399468382
100.00360038999621
100.00780667984286
100.0210981349993
100.06121763184962
100.17623596934266
100.4873772254861
101.2757823922278
103.1323293469819
107.16201298620281
115.1605549599564
129.5811683718703
153.0896288158347
187.70672094082465
187.70558472872835
153.088419610534
129.57995626609156
115.15932934570726
107.16076083497575
103.13107020798361
101.27451331651069
100.48610531453785
100.17496154479439
100.05994218253949
100.01982215858352
100.00653039562188
100.00232399277583
100.00104755098138
100.00068069523222
100.0006036726789
100.00068069520883
100.00104755089352
100.0023239951485
100.00653040372697
100.01982213012586
100.05994221156749
100.17496173649378
100.4861052638196
101.27451451962854
103.13106840554927
107.16076311368623
115.15932176146761
129.5799589057685
153.08845133469575
187.7055843864939
187.70525909652488
153.08808221441666
129.5796095981965
115.15897572014747
107.16040225087829
103.13070827491148
101.27414924353052
100.48573994968044
100.17459544374971
100.0595756857016
100.01945546100605
100.00616360196496
100.001957155707
100.00068069544969
100.0003138325367
100.00023680814523
100.0003138325133
100.00068069536181
100.00195715807985
100.00616361007005
100.01945543254834
100.05957571472972
100.17459563544966
100.48573989896202
101.27415044664997
103.13070647247547
107.16040452959044
115.15896813590358
129.57961223787467
153.08811393858988
187.70525875429004
187.70519088247212
153.08801153052067
129.57953695634401
115.15890159764525
107.16032706288395
103.13063235882899
101.27407285582565
100.48566327280395
100.17451859922568
100.05949874934635
100.01937847714125
100.00608659488557
100.0018801379157
100.00060367300756
100.00023680825639
100.00015978338764
100.00023680823311
100.00060367291974
100.00188014028856
100.00608660299072
100.01937844868343
100.05949877837443
100.17451879092572
100.48566322208539
101.27407405894554
103.13063055639248
107.16032934159645
115.1588940134005
129.57953959602233
153.08804325469643
187.70519054023757
187.7052590965832
153.08808221447723
129.57960959825883
115.15897572021102
107.1604022509428
103.13070827497661
101.274149243596
100.48573994974613
100.17459544381555
100.05957568576754
100.01945546107197
100.0061636020309
100.00195715577298
100.00068069551565
100.0003138326026
100.00023680821114
100.00031383257931
100.00068069542785
100.0019571581458
100.00616361013599
100.01945543261417
100.05957571479561
100.17459563551549
100.48573989902765
101.27415044671545
103.13070647254048
107.16040452965488
115.15896813596717
129.579612237937
153.0881139386506
187.7052587543488
187.70558472892307
153.08841961073568
129.57995626629878
115.15932934591861
107.16076083518996
103.1310702081998
101.27451331672809
100.48610531475599
100.17496154501289
100.05994218275815
100.01982215880234
100.00653039584071
100.00232399299459
100.0010475512002
100.00068069545105
100.0006036728977
100.00068069542773
100.00104755111245
100.0023239953674
100.00653040394576
100.01982213034479
100.05994221178611
100.17496173671223
100.48610526403765
101.27451451984585
103.13106840576546
107.16076311390054
115.15932176167892
129.5799589059758
153.0884513348975
187.70558438668866
187.70672128370677
153.08959709238417
129.58116573288646
115.1605625448844
107.16201070820955
103.13233115012812
101.2757811898368
100.48737727692793
100.17623577836981
100.06121760354752
100.02109816418213
100.00780667246406
100.00360038834957
100.00232399549773
100.00195715821158
100.001880140309
100.00195715818825
100.00232399540988
100.00360039072227
100.00780668056895
100.02109813572514
100.06121763257518
100.17623597006767
100.48737722620992
101.27578239294947
103.13232934769981
107.16201298691475
115.1605549606591
129.5811683725597
153.08962881650586
187.70672094147264
187.71047912500714
153.09348976051473
129.58516276695698
115.16463602948853
107.16613704075014
103.13649188177763
101.2799629712189
100.49157115550162
100.18043618363598
100.06542131534664
100.0253034503766
100.01201266426901
100.00780667833739
100.00653040421717
100.00616361034272
100.00608660315224
100.00616361031942
100.00653040412931
100.00780668070986
100.01201267237333
100.0253034219208
100.06542134437329
100.18043637532921
100.49157110478474
101.27996417431592
103.13649007936755
107.1661393194385
115.1646284453086
129.58516540661765
153.09352148450498
187.71047878277372
187.7223933146609
153.10582974103605
129.5978289325196
115.17753780977453
107.17919883057081
103.14965561203752
101.29318754007893
100.50482971268303
100.1937125161323
100.07870635715406
100.03859249626406
100.02530344129909
100.0210981609767
100.01982215809919
100.0194554603043
100.01937847632826
100.01945546028092
100.01982215801134
100.02109816334875
100.02530344940219
100.03859246781154
100.07870638617827
100.19371270781332
100.50482966196934
101.2931887431317
103.14965380968083
107.17920110920862
115.1775302257334
129.59783157214127
153.10586146461284
187.72239297243058
187.75847600609174
153.1431965435817
129.63616848254304
115.21656943174365
107.21869150894396
103.18943530230408
101.33313398518281
100.54486655676085
100.23379511413522
100.11881060825151
100.07870635122566
100.0654213003432
100.06121759441425
100.05994217612614
100.05957567907096
100.05949874260443
100.05957567904757
100.05994217603836
100.06121759678535
100.06542130844373
100.07870632278073
100.11881063726966
100.23379530578512
100.54486650605499
101.33313518811556
103.18943350009539
107.2186937874378
115.21656184810635
129.63617112204926
153.14322826591888
187.75847566387066
187.86226557521175
153.2506632480098
129.74638740699578
115.3287147537339
107.33209397933898
103.30360122747867
101.44773103742784
100.65969006739519
100.34872942304533
100.23379552889153
100.19371292503124
100.18043658349336
100.17623618410354
100.17496195324937
100.17459585198876
100.17451900735405
100.17459585196546
100.1749619531617
100.17623618647274
100.18043659158823
100.19371289660319
100.23379555789562
100.34872961462116
100.65969001670823
101.44773224005462
103.30359942565669
107.33209625744446
115.3287071712081
129.7463900461775
153.25069496681775
187.8622652330197
188.1439463773085
153.5422764922048
130.0453403001328
115.63271639534743
107.63931892637045
103.61273320610918
101.75790841125394
100.97039899665555
100.65968963252486
100.54486653611188
100.50482968611034
100.49157111987148
100.48737724715583
100.48610528747875
100.48573992240446
100.48566324541716
100.4857399223813
100.48610528739135
100.48737724952116
100.49157112795507
100.50482965771734
100.54486656508581
100.65968982393503
100.97039894601096
101.75790961314898
103.61273140523555
107.63932120349139
115.63270881569936
130.04534293845546
153.54230820153958
188.14394603519958
188.85995282494784
154.28340599665285
130.80478734367458
116.40453554760518
108.41885795220465
104.39671778951222
102.54425708816544
101.75791106259508
101.44773325632816
101.33313661823284
101.29319016748639
101.27996558969296
101.27578381418894
101.27451594357922
101.27415187038658
101.27407548257224
101.27415187036343
101.27451594349203
101.27578381654715
101.27996559775474
101.29319013916137
101.33313664714608
101.44773344739242
101.75791101203954
102.54425828842886
104.39671599080846
108.41886022699485
116.40452797491956
130.80478997986847
154.28343768218133
188.85995248306122
190.5510442062617
156.0335357654709
132.5973738012035
118.22526534252528
110.25674265526452
106.24421553768514
104.3967149688085
103.61273302536668
103.3036006140941
103.18943510087452
103.14965540470106
103.1364916654447
103.13233093960926
103.13107000015454
103.13070806686736
103.130632150675
103.1307080668444
103.13107000006784
103.13233094195516
103.13649167346829
103.14965537649984
103.18943512967371
103.30360080448654
103.61273297498491
104.39671616569558
106.24421374358698
110.25674492493626
118.22525778546954
132.5973764324984
156.03356739542446
190.5510438649217
194.23169346393777
159.84204141072675
136.49657152601876
122.1834679544767
114.2500912550075
110.25674220380685
108.4188546944358
107.6393182938413
107.33209291677694
107.21869085563937
107.17919817137735
107.16613637262402
107.16201004585015
107.16076017528242
107.16040159097156
107.16032640286845
107.16040159094875
107.16076017519651
107.16201004817623
107.16613638058396
107.17919814338624
107.21869088423934
107.33209310595791
107.63931824377441
108.41885588486339
110.25674041873485
114.25009351431284
122.18346042976127
136.4965741469197
159.84207292110824
194.23169312382157
201.55530000520014
167.41884538972494
144.25063308970755
130.05081908964092
122.18346718982193
118.22526412702301
116.40453155132347
115.6327149984785
115.3287129312169
115.21656801399178
115.1775363861676
115.1646345970495
115.16056111813849
115.1593279215915
115.15897429582088
115.15890017321136
115.15897429579839
115.15932792150677
115.16056112043434
115.16463460491038
115.17753635851055
115.21656804226733
115.32871311837079
115.63271494894124
116.4045327303574
118.22526235822691
122.1834694298618
130.05081162624404
144.2506356904213
167.41887666477461
201.55529966756114
214.78630293307586
181.10533306728834
158.2522425702833
144.25063186897526
136.49656954218725
132.59737136840567
130.8047821717836
130.04533768590275
129.74638437396175
129.63616584732716
129.5978262915077
129.58516011726226
129.58116308877644
129.57995362456052
129.57960695645843
129.57953431450068
129.57960695643644
129.57995362447744
129.58116309102883
129.58516012497813
129.59782626434762
129.63616587511012
129.74638455796708
130.04533763719215
130.80478333231076
132.59736962655535
136.49657174948243
144.250624511657
158.2522451353086
181.10536392132428
214.7863025999398
236.3906285553971
203.45077464162307
181.1053942026694
167.4189061668457
159.84210190938134
156.03359606315942
154.28346373134147
153.54233677089178
153.25072313715182
153.14325682774597
153.1058900220259
153.09355003387265
153.0896573714462
153.0884798921876
153.0881424958917
153.08807181189815
153.08814249587016
153.08847989210668
153.08965737363954
153.09355004138897
153.10588999555947
153.14325685483027
153.25072331661013
153.5423367233798
154.2834648641703
156.0335943622635
159.84210406583728
167.4188989766203
181.1053967104569
203.45080481374418
236.39062822960756
268.24068879546076
236.39057257949815
214.7863048022954
201.55530074712374
194.23169350035263
190.55104382684442
188.85994986631178
188.14394583260733
187.8622646367508
187.75847544265173
187.72239274586667
187.7104785480821
187.70672071204658
187.705584159496
187.70525852709878
187.70519031294756
187.7052585270778
187.70558415941784
187.70672071416394
187.71047855533868
187.72239272031152
187.75847546880738
187.86226481008623
188.14394578671462
188.85995096084804
190.55104218321387
194.23169558460216
201.55529379676204
214.78630722681248
236.39060175228965
268.24068848045886
