# vtk DataFile Version 2.0
Unstructured Grid Example
ASCII
DATASET UNSTRUCTURED_GRID

POINTS 961 float
0.150000006 -0.00839745998 0
0.146666661 -0.00839745998 0
0.143333331 -0.00839745998 0
0.140000001 -0.00839745998 0
0.13666667 -0.00839745998 0
0.13333334 -0.00839745998 0
0.129999995 -0.00839745998 0
0.126666665 -0.00839745998 0
0.123333335 -0.00839745998 0
0.119999997 -0.00839745998 0
0.116666667 -0.00839745998 0
0.113333337 -0.00839745998 0
0.109999999 -0.00839745998 0
0.106666669 -0.00839745998 0
0.103333332 -0.00839745998 0
0.100000001 -0.00839745998 0
0.0966666639 -0.00839745998 0
0.0933333337 -0.00839745998 0
0.0900000036 -0.00839745998 0
0.086666666 -0.00839745998 0
0.0833333358 -0.00839745998 0
0.0799999982 -0.00839745998 0
0.0766666681 -0.00839745998 0
0.0733333305 -0.00839745998 0
0.0700000003 -0.00839745998 0
0.0666666701 -0.00839745998 0
0.0633333325 -0.00839745998 0
0.0599999987 -0.00839745998 0
0.0566666685 -0.00839745998 0
0.0533333346 -0.00839745998 0
0.0500000007 -0.00839745998 0
0.148333326 -0.0112842107 0
0.144999996 -0.0112842107 0
0.141666666 -0.0112842107 0
0.138333336 -0.0112842107 0
0.135000005 -0.0112842107 0
0.13166666 -0.0112842107 0
0.12833333 -0.0112842107 0
0.125 -0.0112842107 0
0.12166667 -0.0112842107 0
0.118333332 -0.0112842107 0
0.115000002 -0.0112842107 0
0.111666664 -0.0112842107 0
0.108333334 -0.0112842107 0
0.104999997 -0.0112842107 0
0.101666667 -0.0112842107 0
0.0983333364 -0.0112842107 0
0.0949999988 -0.0112842107 0
0.0916666687 -0.0112842107 0
0.088333331 -0.0112842107 0
0.0850000009 -0.0112842107 0
0.0816666633 -0.0112842107 0
0.0783333331 -0.0112842107 0
0.075000003 -0.0112842107 0
0.0716666654 -0.0112842107 0
0.0683333352 -0.0112842107 0
0.0649999976 -0.0112842107 0
0.0616666675 -0.0112842107 0
0.0583333336 -0.0112842107 0
0.0549999997 -0.0112842107 0
0.0516666658 -0.0112842107 0
0.0483333319 -0.0112842107 0
0.146666661 -0.0141709624 0
0.143333331 -0.0141709624 0
0.140000001 -0.0141709624 0
0.13666667 -0.0141709624 0
0.13333334 -0.0141709624 0
0.129999995 -0.0141709624 0
0.126666665 -0.0141709624 0
0.123333335 -0.0141709624 0
0.119999997 -0.0141709624 0
0.116666667 -0.0141709624 0
0.113333337 -0.0141709624 0
0.109999999 -0.0141709624 0
0.106666669 -0.0141709624 0
0.103333332 -0.0141709624 0
0.100000001 -0.0141709624 0
0.0966666639 -0.0141709624 0
0.0933333337 -0.0141709624 0
0.0900000036 -0.0141709624 0
0.086666666 -0.0141709624 0
0.0833333358 -0.0141709624 0
0.0799999982 -0.0141709624 0
0.0766666681 -0.0141709624 0
0.0733333305 -0.0141709624 0
0.0700000003 -0.0141709624 0
0.0666666701 -0.0141709624 0
0.0633333325 -0.0141709624 0
0.0599999987 -0.0141709624 0
0.0566666685 -0.0141709624 0
0.0533333346 -0.0141709624 0
0.0500000007 -0.0141709624 0
0.0466666669 -0.0141709624 0
0.144999996 -0.0170577131 0
0.141666666 -0.0170577131 0
0.138333336 -0.0170577131 0
0.135000005 -0.0170577131 0
0.13166666 -0.0170577131 0
0.12833333 -0.0170577131 0
0.125 -0.0170577131 0
0.12166667 -0.0170577131 0
0.118333332 -0.0170577131 0
0.115000002 -0.0170577131 0
0.111666664 -0.0170577131 0
0.108333334 -0.0170577131 0
0.104999997 -0.0170577131 0
0.101666667 -0.0170577131 0
0.0983333364 -0.0170577131 0
0.0949999988 -0.0170577131 0
0.0916666687 -0.0170577131 0
0.088333331 -0.0170577131 0
0.0850000009 -0.0170577131 0
0.0816666633 -0.0170577131 0
0.0783333331 -0.0170577131 0
0.075000003 -0.0170577131 0
0.0716666654 -0.0170577131 0
0.0683333352 -0.0170577131 0
0.0649999976 -0.0170577131 0
0.0616666675 -0.0170577131 0
0.0583333336 -0.0170577131 0
0.0549999997 -0.0170577131 0
0.0516666658 -0.0170577131 0
0.0483333319 -0.0170577131 0
0.0450000018 -0.0170577131 0
0.143333331 -0.0199444648 0
0.140000001 -0.0199444648 0
0.13666667 -0.0199444648 0
0.13333334 -0.0199444648 0
0.129999995 -0.0199444648 0
0.126666665 -0.0199444648 0
0.123333335 -0.0199444648 0
0.119999997 -0.0199444648 0
0.116666667 -0.0199444648 0
0.113333337 -0.0199444648 0
0.109999999 -0.0199444648 0
0.106666669 -0.0199444648 0
0.103333332 -0.0199444648 0
0.100000001 -0.0199444648 0
0.0966666639 -0.0199444648 0
0.0933333337 -0.0199444648 0
0.0900000036 -0.0199444648 0
0.086666666 -0.0199444648 0
0.0833333358 -0.0199444648 0
0.0799999982 -0.0199444648 0
0.0766666681 -0.0199444648 0
0.0733333305 -0.0199444648 0
0.0700000003 -0.0199444648 0
0.0666666701 -0.0199444648 0
0.0633333325 -0.0199444648 0
0.0599999987 -0.0199444648 0
0.0566666685 -0.0199444648 0
0.0533333346 -0.0199444648 0
0.0500000007 -0.0199444648 0
0.0466666669 -0.0199444648 0
0.043333333 -0.0199444648 0
0.141666666 -0.0228312165 0
0.138333336 -0.0228312165 0
0.135000005 -0.0228312165 0
0.13166666 -0.0228312165 0
0.12833333 -0.0228312165 0
0.125 -0.0228312165 0
0.12166667 -0.0228312165 0
0.118333332 -0.0228312165 0
0.115000002 -0.0228312165 0
0.111666664 -0.0228312165 0
0.108333334 -0.0228312165 0
0.104999997 -0.0228312165 0
0.101666667 -0.0228312165 0
0.0983333364 -0.0228312165 0
0.0949999988 -0.0228312165 0
0.0916666687 -0.0228312165 0
0.088333331 -0.0228312165 0
0.0850000009 -0.0228312165 0
0.0816666633 -0.0228312165 0
0.0783333331 -0.0228312165 0
0.075000003 -0.0228312165 0
0.0716666654 -0.0228312165 0
0.0683333352 -0.0228312165 0
0.0649999976 -0.0228312165 0
0.0616666675 -0.0228312165 0
0.0583333336 -0.0228312165 0
0.0549999997 -0.0228312165 0
0.0516666658 -0.0228312165 0
0.0483333319 -0.0228312165 0
0.0450000018 -0.0228312165 0
0.0416666679 -0.0228312165 0
0.140000001 -0.0257179681 0
0.13666667 -0.0257179681 0
0.13333334 -0.0257179681 0
0.129999995 -0.0257179681 0
0.126666665 -0.0257179681 0
0.123333335 -0.0257179681 0
0.119999997 -0.0257179681 0
0.116666667 -0.0257179681 0
0.113333337 -0.0257179681 0
0.109999999 -0.0257179681 0
0.106666669 -0.0257179681 0
0.103333332 -0.0257179681 0
0.100000001 -0.0257179681 0
0.0966666639 -0.0257179681 0
0.0933333337 -0.0257179681 0
0.0900000036 -0.0257179681 0
0.086666666 -0.0257179681 0
0.0833333358 -0.0257179681 0
0.0799999982 -0.0257179681 0
0.0766666681 -0.0257179681 0
0.0733333305 -0.0257179681 0
0.0700000003 -0.0257179681 0
0.0666666701 -0.0257179681 0
0.0633333325 -0.0257179681 0
0.0599999987 -0.0257179681 0
0.0566666685 -0.0257179681 0
0.0533333346 -0.0257179681 0
0.0500000007 -0.0257179681 0
0.0466666669 -0.0257179681 0
0.043333333 -0.0257179681 0
0.0399999991 -0.0257179681 0
0.138333336 -0.0286047198 0
0.135000005 -0.0286047198 0
0.13166666 -0.0286047198 0
0.12833333 -0.0286047198 0
0.125 -0.0286047198 0
0.12166667 -0.0286047198 0
0.118333332 -0.0286047198 0
0.115000002 -0.0286047198 0
0.111666664 -0.0286047198 0
0.108333334 -0.0286047198 0
0.104999997 -0.0286047198 0
0.101666667 -0.0286047198 0
0.0983333364 -0.0286047198 0
0.0949999988 -0.0286047198 0
0.0916666687 -0.0286047198 0
0.088333331 -0.0286047198 0
0.0850000009 -0.0286047198 0
0.0816666633 -0.0286047198 0
0.0783333331 -0.0286047198 0
0.075000003 -0.0286047198 0
0.0716666654 -0.0286047198 0
0.0683333352 -0.0286047198 0
0.0649999976 -0.0286047198 0
0.0616666675 -0.0286047198 0
0.0583333336 -0.0286047198 0
0.0549999997 -0.0286047198 0
0.0516666658 -0.0286047198 0
0.0483333319 -0.0286047198 0
0.0450000018 -0.0286047198 0
0.0416666679 -0.0286047198 0
0.038333334 -0.0286047198 0
0.13666667 -0.0314914696 0
0.13333334 -0.0314914696 0
0.129999995 -0.0314914696 0
0.126666665 -0.0314914696 0
0.123333335 -0.0314914696 0
0.119999997 -0.0314914696 0
0.116666667 -0.0314914696 0
0.113333337 -0.0314914696 0
0.109999999 -0.0314914696 0
0.106666669 -0.0314914696 0
0.103333332 -0.0314914696 0
0.100000001 -0.0314914696 0
0.0966666639 -0.0314914696 0
0.0933333337 -0.0314914696 0
0.0900000036 -0.0314914696 0
0.086666666 -0.0314914696 0
0.0833333358 -0.0314914696 0
0.0799999982 -0.0314914696 0
0.0766666681 -0.0314914696 0
0.0733333305 -0.0314914696 0
0.0700000003 -0.0314914696 0
0.0666666701 -0.0314914696 0
0.0633333325 -0.0314914696 0
0.0599999987 -0.0314914696 0
0.0566666685 -0.0314914696 0
0.0533333346 -0.0314914696 0
0.0500000007 -0.0314914696 0
0.0466666669 -0.0314914696 0
0.043333333 -0.0314914696 0
0.0399999991 -0.0314914696 0
0.0366666652 -0.0314914696 0
0.135000005 -0.0343782231 0
0.13166666 -0.0343782231 0
0.12833333 -0.0343782231 0
0.125 -0.0343782231 0
0.12166667 -0.0343782231 0
0.118333332 -0.0343782231 0
0.115000002 -0.0343782231 0
0.111666664 -0.0343782231 0
0.108333334 -0.0343782231 0
0.104999997 -0.0343782231 0
0.101666667 -0.0343782231 0
0.0983333364 -0.0343782231 0
0.0949999988 -0.0343782231 0
0.0916666687 -0.0343782231 0
0.088333331 -0.0343782231 0
0.0850000009 -0.0343782231 0
0.0816666633 -0.0343782231 0
0.0783333331 -0.0343782231 0
0.075000003 -0.0343782231 0
0.0716666654 -0.0343782231 0
0.0683333352 -0.0343782231 0
0.0649999976 -0.0343782231 0
0.0616666675 -0.0343782231 0
0.0583333336 -0.0343782231 0
0.0549999997 -0.0343782231 0
0.0516666658 -0.0343782231 0
0.0483333319 -0.0343782231 0
0.0450000018 -0.0343782231 0
0.0416666679 -0.0343782231 0
0.038333334 -0.0343782231 0
0.0350000001 -0.0343782231 0
0.13333334 -0.0372649729 0
0.129999995 -0.0372649729 0
0.126666665 -0.0372649729 0
0.123333335 -0.0372649729 0
0.119999997 -0.0372649729 0
0.116666667 -0.0372649729 0
0.113333337 -0.0372649729 0
0.109999999 -0.0372649729 0
0.106666669 -0.0372649729 0
0.103333332 -0.0372649729 0
0.100000001 -0.0372649729 0
0.0966666639 -0.0372649729 0
0.0933333337 -0.0372649729 0
0.0900000036 -0.0372649729 0
0.086666666 -0.0372649729 0
0.0833333358 -0.0372649729 0
0.0799999982 -0.0372649729 0
0.0766666681 -0.0372649729 0
0.0733333305 -0.0372649729 0
0.0700000003 -0.0372649729 0
0.0666666701 -0.0372649729 0
0.0633333325 -0.0372649729 0
0.0599999987 -0.0372649729 0
0.0566666685 -0.0372649729 0
0.0533333346 -0.0372649729 0
0.0500000007 -0.0372649729 0
0.0466666669 -0.0372649729 0
0.043333333 -0.0372649729 0
0.0399999991 -0.0372649729 0
0.0366666652 -0.0372649729 0
0.0333333351 -0.0372649729 0
0.13166666 -0.0401517227 0
0.12833333 -0.0401517227 0
0.125 -0.0401517227 0
0.12166667 -0.0401517227 0
0.118333332 -0.0401517227 0
0.115000002 -0.0401517227 0
0.111666664 -0.0401517227 0
[...]
POINT_DATA 961
SCALARS Temp float 1
LOOKUP_TABLE default
380.77102075651595
331.456014241966
291.5033032413951
261.4801783508096
240.18309982698204
225.89920310580297
216.82683348215093
211.3592207136388
208.22500464396487
206.51148243236804
205.61544211530537
205.16595941478087
204.94904065178176
204.84805521430832
204.80259731466057
204.78280426954777
204.77459279071385
204.77179628348878
204.77250975974863
204.77820747909558
204.7955885424393
204.84252112735746
204.96129294921414
205.24418587709772
205.8768187020222
207.2013042013422
209.7908781935935
214.51110256032624
222.52880699344377
235.23940946526145
254.39454730400232
331.4560297891675
284.3837584677113
248.0594023445111
221.459460068011
203.03591536280481
190.95505380642783
183.44379910321302
179.0064947103602
176.5096650380731
175.16780427971636
174.47707301141844
174.13553386317864
173.97286591414675
173.89804674077402
173.86475345533805
173.8504698895956
173.84481143289742
173.8435795638384
173.84634794239153
173.85676959023144
173.88617421409845
173.9626921193219
174.1500448380225
174.58152497254898
175.5136702977499
177.39758873341196
180.9520053095015
187.20444862303125
197.45706126869766
213.1554913127127
235.23942875377764
291.5032598424608
248.05938366878445
215.08034773066856
191.31722412159962
175.07724324186643
164.5463428404999
158.05844742993932
154.2537134317724
152.12501297306426
150.98590058131174
150.40134350778166
150.11290838794508
149.97571292012256
149.9126609772033
149.88464057799047
149.87271611501978
149.86830522815356
149.86834603325352
149.87375789601862
149.8908796611624
149.93703177956982
150.05315722003007
150.32825945187915
150.940935199139
152.2203126101797
154.71929766909224
159.27696949901065
167.02991509696378
179.3250271968821
197.4570517533751
222.5288160809513
261.4801274965448
221.45943518981275
191.31722667585964
169.72686689401692
155.02762973092655
145.5134106543844
139.65319973439688
136.21304870586727
134.2845658267745
133.24990843172375
132.71735104840445
132.45372606645188
132.3279197973186
132.2699257773039
132.24411796764153
132.23324608923963
132.22965244722997
132.23112295915337
132.24007334486342
132.2661354634692
132.33380551905233
132.49858123537345
132.87640224643613
133.69072515927147
135.33663741845797
138.45003771523787
143.95361209041704
153.03720941088142
167.0299293769297
187.2044613719789
214.5110941846014
240.18305744352057
203.03589527846913
175.07723379059647
155.02768338622315
141.34216220149312
132.4524103728192
126.954011949783
123.71194048212378
121.88640835972355
120.90276382265091
120.3944118961056
120.14183033535738
120.02089084771279
119.9649910828828
119.94011145523272
119.92980309006911
119.92697730920517
119.93023375009776
119.94370900867926
119.98082377274294
120.07393686693013
120.29352835299368
120.78138297435633
121.80065004191144
123.79934397548614
127.47184971772924
133.78829731413867
143.95360597586998
159.27696538335442
180.95200315669342
209.79088436824708
225.89916313808695
190.95508278723128
164.54638124155096
145.51338304279733
132.45239998329066
123.92339612495391
118.62183527980017
115.48164688009784
113.70635970722304
112.74642052481542
112.24881775793646
112.00093679905427
111.88199496953997
111.82694491082718
111.8024935252635
111.79260941919583
111.79065418955412
111.79609401632052
111.81496160749708
111.86468586243596
111.98546530016003
112.26173197840015
112.85755138965628
114.06735159606758
116.37643578082984
120.51432818094095
127.4718474685641
138.45003888537178
154.71930456920768
177.39756858675503
207.2012970511163
216.82683929037876
183.44381804572757
158.05848754211604
139.65316741081594
126.95400023494737
118.6218326831869
113.42175934568017
110.33139838125452
108.57948592489761
107.63007388209631
107.13704145705957
106.89108281066379
106.7729373130791
106.7182418212832
106.694043496371
106.6845785425134
106.68363458961517
106.69158502232918
106.7164024964805
106.77939305270424
106.92785006559703
107.25793477442272
107.95093266297852
109.32313426654343
111.8826997278468
116.37643298765558
123.79933777889791
135.33662813776522
152.2203102041719
175.51366787023937
205.8768276659985
211.3592343475161
179.00651873968835
154.2536624343484
136.21302126056742
123.71193851279473
115.48165442565193
110.33139673112548
107.26429274429245
105.52278562915659
104.57786179256668
104.08669784063503
103.84150011446975
103.72367057915578
103.66914662775615
103.64515431852453
103.63614277572375
103.63631979949561
103.64695436611919
103.67784098189868
103.75370320865667
103.92765711028123
104.30474994596979
105.07815853839676
106.57761706636734
109.32313293128361
114.06734980533939
121.80065112147528
133.69072608834065
150.94092172070268
174.58150618686847
205.24417611777605
208.22501070508125
176.50969664135286
152.12496861646787
134.2845486654272
121.8864096157085
113.70635288833682
108.57948471027314
105.52278985616181
103.78573774004794
102.84265586858751
102.35223126318341
102.10732885750025
101.98963236351456
101.93521795151258
101.91142654234149
101.90289802505961
101.90423775714936
101.91753270889733
101.95414351129227
102.04153407881297
102.23714551794895
102.65207566673196
103.48678904318639
105.07815974264686
107.95093272679134
112.85755055962291
120.78138176483235
132.8763983437304
150.32826305015877
174.1500511859608
204.96131154323805
206.51151571652647
175.1677407736988
150.9858791240046
133.249905742611
120.90277508088909
112.74641980991125
107.63007774044965
104.57786109938
102.84265526103368
101.90030410704343
101.41016670363493
101.1653811238123
101.04775275696433
100.99342992806463
100.96984167977519
100.96179965867844
100.96426150538689
100.98000028764521
101.02160582423124
101.1185393602382
101.33114357118721
101.77419902599543
102.65207487866255
104.30474964860396
107.25793466932062
112.26173167057715
120.29352842126947
132.49856593254614
150.05314327297515
173.96267566094292
204.84251232285138
205.61549947134716
174.4770240785682
150.40133275653494
132.71735612909643
120.39440412916764
112.24881909384956
107.13704689520904
104.08669796460548
102.35223221244686
101.41016664972418
100.92014158760747
100.675408808537
100.5578287144165
100.50359336409365
100.48020506630688
100.47262213986536
100.47609095161073
100.49391220099385
100.53955534337737
100.64380162525487
100.86874422547248
101.33114424265068
102.23714577039775
103.92765635979427
106.9278488012643
111.98546417498086
120.07393417788647
132.33380397904907
149.93703659002523
173.88618266060658
204.79557525303528
205.16590085634544
174.13550278644317
150.11290727427073
132.45373798804542
120.141823781076
112.00093987077499
106.89107998399523
103.84150066461147
102.10732717408135
101.16538113926927
100.6754092548819
100.43071281314229
100.31317921628708
100.25903169551927
100.23583215833371
100.22865567657061
100.2329663384798
100.25243613284371
100.30110782749982
100.41055149602617
100.6438021025735
101.1185397378354
102.04153374665937
103.75370469545823
106.77939549312853
111.86469080585208
119.98081979879845
132.26613029161132
149.89088068942667
173.85677113489373
204.7782213837339
204.94901454942467
173.97286218608514
149.97573045225772
132.32790909422638
120.0208928655331
111.88200449145766
106.77293671439185
103.72367309205627
101.98963151055167
101.04775324383357
100.55782845614559
100.31317907478892
100.195704357619
100.14165088160138
100.11862589784701
100.11179079775494
100.11676063965524
100.13744658308778
100.18823093395991
100.30110750335105
100.539555230783
101.02160635940493
101.95414224848712
103.67784047105297
106.71640150773204
111.81495986091679
119.94370758850712
132.24007191017742
149.87376409104743
173.84632553799156
204.77251328238543
204.84803439470963
173.89804656602905
149.91268340753467
132.26991566736731
119.9649942661672
111.82693949766089
106.71824208797442
103.66914479222471
101.93521742127093
100.99343069074723
100.50359303181592
100.25903166893721
100.1416508496899
100.08771248414138
100.0648553121479
100.05830039589401
100.06375986206339
100.0852867419033
100.13744653719833
100.25243621660496
100.49391214287296
100.98000061798784
101.91753259475148
103.64695577011699
106.69158770542626
111.79609156087876
119.93023030784765
132.23111861015136
149.86834701324236
173.84358330050384
204.77179569899434
204.8025970775128
173.86477260960916
149.88462813347385
132.24411852540624
119.94012416489201
111.80249212796916
106.69404773469613
103.645153843
101.91142650200379
100.96984151838575
100.48020504914587
100.23583225827326
100.11862586622354
100.06485534156874
100.04218135216789
100.03586540895195
100.04168053522244
100.06375983591249
100.11676056441806
100.23296622206676
100.47609097057297
100.96426127084925
101.9042365831769
103.63631930285777
106.68363345829901
111.79065343625052
119.92697663413496
132.22965212458442
149.8682905287302
173.84480774675038
204.774584797237
204.78280475741897
173.85049151741197
149.8727040131045
132.23324862352263
119.92979380016864
111.79260910974146
106.6845749223582
103.63614291219803
101.90289861827821
100.96179946770809
100.4726221876622
100.22865543008513
100.11179080426537
100.05830035002786
100.035865409287
100.02978129666958
100.03586542063194
100.05830036722928
100.11179088429259
100.228655539629
100.47262204925447
100.96180003808136
101.90289800182262
103.63614438174925
106.6845770026588
111.79260727105381
119.92980102689215
132.2332421355794
149.8727205805582
173.85046057755036
204.78280667868276
204.77461363222992
173.84478819574593
149.86831123891426
132.2296690855407
119.92697432744168
111.79066028768833
106.68363359920336
103.63632110234313
101.90423657534673
100.96426188427718
100.47609136339005
100.23296621176189
100.11676074336668
100.06375984831338
100.04168054628506
100.03586542944713
100.04218137075578
100.06485528556686
100.11862589521095
100.2358320826404
100.48020474710341
100.96984150557046
101.91142545655283
103.64515364035061
106.69404327533535
111.8024932631169
119.94011184645626
132.24410222858418
149.8846378887983
173.86473752175462
204.80258915311265
204.7718275992269
173.84356196512994
149.86835587008994
132.23110727714268
119.93023271984565
111.79608775534435
106.69158498804853
103.64695675460396
101.91753148672987
100.98000086982125
100.49391191651101
100.25243605145454
100.13744649861614
100.08528671538454
100.06375988224153
100.05830040285525
100.06485531899408
100.08771252038167
100.14165089802626
100.2590315913129
100.50359330393849
100.99343031171372
101.9352181485437
103.6691458000046
106.71824063029356
111.82694337932193
119.96498837382997
132.26992447312998
149.9126530603698
173.89803812607275
204.84805629111304
204.77247718011853
173.84633793362406
149.87377408668837
132.24005846198543
119.94371115867678
111.81495564290083
106.71640193866571
103.67783890632373
101.95414256201978
101.02160667323953
100.53955497232099
100.30110774696723
100.18823088745177
100.13744655445835
100.11676063555315
100.11179079451274
100.11862587892755
100.1416509135835
100.1957043095258
100.31317901787534
100.55782863264935
101.04775305623775
101.98963208665575
103.7236716952117
106.77293947822619
111.88199967601024
120.02088645947919
132.32792210074552
149.97571253645856
173.97286587910585
204.94905067484277
204.77820027977106
173.85678189479228
149.8908631734852
132.2661329311225
119.98081330068885
111.8646861761822
106.77939707654335
103.75370272577325
102.04153422545735
101.11853931738683
100.64380178891433
100.41055141748299
100.30110776681138
100.25243618443267
100.23296635552649
100.22865567926615
100.23583217260516
100.25903171341352
100.31317917188845
100.43071293540103
100.67540903163692
101.16538147287302
102.10732759117367
103.84149957471092
106.89108184561417
112.00093525133674
120.14182873805294
132.45371490176913
150.11290099620692
174.13552472455297
205.16596001949202
204.79558422141977
173.8861918283073
149.93701598256794
132.33380826064757
120.07392736812228
111.98546486270195
106.92784612759134
103.9276569660454
102.23714638231115
101.33114376861022
100.86874472041151
100.64380156073629
100.53955529224966
100.49391218540858
100.47609092512164
100.4726221421941
100.4802051011377
100.5035933318499
100.55782869595835
100.6754088865435
100.92014146124156
101.41016690214325
102.35223131640677
104.08669940690436
107.13704366061164
112.24881488475867
120.39441331138312
132.71734580305034
150.401343106878
174.47707314135891
205.61543893318998
204.84251752605968
173.962648454721
150.0531460543224
132.49855611551808
120.29352138110394
112.26173430327303
107.2579314868796
104.30475056492946
102.65207417697904
101.77419848213476
101.33114342520824
101.11853922745799
101.02160593641315
100.98000035791472
100.96426151553942
100.96179966282313
100.96984167999801
100.99342990118717
101.04775281328378
101.1653810082223
101.41016688174574
101.90030427636216
102.84265463034714
104.57786218234091
107.63007511476853
112.74642395246208
120.90276166561806
133.2499071771527
150.98590865717452
175.16781532786098
206.51149930449492
204.96133891923395
174.15004178724087
150.32828292776108
132.87639888439162
120.78139041657663
112.85755155284083
107.95093756459926
105.07816365272413
103.4867904573253
102.65207853053306
102.23714724788296
102.04153570442774
101.95414514085896
101.91753427372197
101.90423942922892
101.90289974878692
101.91142813827551
101.93521960885711
101.98963401061252
102.10733032167884
102.35223283268708
102.8426566291649
103.78573946478318
105.5227883621189
108.5794820847314
113.70635801347444
121.88640149310447
134.28455521638887
152.12500538330653
176.50963712798108
208.22498694021033
205.24416896949376
174.5815306695458
150.9409233304832
133.69072734614227
121.80066350760555
114.06735120973448
109.32313934886523
106.57761995000615
105.07816114521442
104.30475290154445
103.92765991036386
103.75370645375435
103.67784420499672
103.6469573985359
103.63632278274699
103.6361457317766
103.64515727524919
103.6691496235609
103.72367347686858
103.84150316825371
104.08670067897594
104.5778641116134
105.52278862939556
107.26429317638834
110.33140079639772
115.48164645932289
123.71193945944893
136.2130407089248
154.25371106532077
179.00648805641282
211.35921857163612
205.87681179646677
175.5136867321609
152.22030561620292
135.33663689061552
123.79933675146327
116.37643892255163
111.88270500443151
109.32313591601142
107.95093699494024
107.25793747025486
106.92785255523171
106.77939552397784
106.71640480036918
106.69158762083954
106.6836373261772
106.68458100336434
106.69404616307851
106.71824442234272
106.77293978254419
106.89108542478033
107.13704374941601
107.6300768217417
108.57948730012504
110.33139989390554
113.4217662552797
118.62183220840987
126.9540108190879
139.6532000325005
158.05844379542697
183.4437963516612
216.8268412772902
207.20130482669694
177.39755320636746
154.71929292126444
138.45004574255927
127.47184150075424
120.51433109486318
116.37643450830598
114.06735049377572
112.85755106399465
112.26173149451942
111.98546575607436
111.86468646746668
111.8149618039304
111.7960940848453
111.79065418414393
111.79260949324797
111.80249363654961
111.82694501828895
111.88199533075594
112.00093687215484
112.2488178458225
112.74642126200402
113.7063593592158
115.48164935972243
118.6218312741907
123.92339905196067
132.45241668080368
145.51342067427203
164.5463554762905
190.95506186379072
225.89916572935556
209.79088272166078
180.95197782625414
159.27696064460943
143.95359043609093
133.78829304739622
127.47184571610428
123.79933533680308
121.80064579748728
120.78137671133125
120.29352176552757
120.07393020805924
119.98081674140683
119.9437025901462
119.93022761722088
119.92697066005819
119.92979687260728
119.94010507744687
119.96498454673163
120.02088449679661
120.14182394116611
120.3944058978605
120.90275703620502
121.88640249722886
123.7119380524269
126.95400515259799
132.4524114334356
141.34217823132843
155.02763952906125
175.077201823926
203.03587507706843
240.18305863613867
214.51110550657117
187.20447441114942
167.02996300686362
153.03722475057316
143.95363717190705
138.4500561996631
135.33665550679262
133.69074383325972
132.8764204235626
132.49860085855263
132.33382547475222
132.26615469575026
132.24009230726807
132.23114175985464
132.22967147809874
132.2332651216992
132.24413703911324
132.26994519475028
132.32793864199
132.45374509465765
132.7173703651577
133.2499267680442
134.2845852277218
136.21306315465736
139.6532171072108
145.51343458079967
155.0276635102754
169.72684322280617
191.31719480032945
221.4594076493113
261.4801322954423
222.52882621812554
197.4570841169043
179.32504281126262
167.02994171443865
159.276994800729
154.7193160406887
152.22033604021425
150.94095600391955
150.32827969221563
150.05317723932933
149.9370510586003
149.89089985199027
149.87377853231013
149.86836595790683
149.86832582155972
149.8727364224104
149.88466065207885
149.91268118502242
149.97573317736246
150.11292868689858
150.40136297767074
150.98592089961966
152.12503446257642
154.25373033561152
158.0584676184754
164.5463693900824
175.07721690448085
191.31719734094446
215.08031580130526
248.0593541651822
291.503259827417
235.2394312601955
213.1555148258037
197.45706424025693
187.20446298285805
180.95201255446713
177.39759579848408
175.51367816561205
174.58153235902432
174.1500543745611
173.96270200123357
173.88618300641164
173.85677806992186
173.84635620937874
173.84358833041168
173.84482009678794
173.85047862811072
173.86476260543094
173.89805509419696
173.97287471162286
174.13554285299358
174.47708131345846
175.16781316290263
176.50967066179228
179.00650249960336
183.4438109254182
190.95507183065266
203.03588329207278
221.45941519064075
248.05934822235878
284.38370570952816
331.4559384968096
254.39456370588937
235.23940403678802
222.52881317007055
214.51110776384786
209.79087553007648
207.2013073628235
205.87681874069398
205.24418658488025
204.96129336240108
204.84251952784595
204.79558842287622
204.77820766818215
204.77250973936958
204.7717967489665
204.77459291223653
204.78280439935924
204.80259683706583
204.84805558437444
204.94904068760954
205.16595874264917
205.61544237443232
206.51148372483175
208.225002845516
211.35922066188877
216.8268361233307
225.8991608133157
240.18305727308103
261.4801241073686
291.5032368422689
331.4559205654522
380.7706099813559
