# vtk DataFile Version 2.0
Unstructured Grid Example
ASCII
DATASET UNSTRUCTURED_GRID

POINTS 961 float
0.150000006 -0.00839745998 0
0.146666661 -0.00839745998 0
0.143333331 -0.00839745998 0
0.140000001 -0.00839745998 0
0.13666667 -0.00839745998 0
0.13333334 -0.00839745998 0
0.129999995 -0.00839745998 0
0.126666665 -0.00839745998 0
0.123333335 -0.00839745998 0
0.119999997 -0.00839745998 0
0.116666667 -0.00839745998 0
0.113333337 -0.00839745998 0
0.109999999 -0.00839745998 0
0.106666669 -0.00839745998 0
0.103333332 -0.00839745998 0
0.100000001 -0.00839745998 0
0.0966666639 -0.00839745998 0
0.0933333337 -0.00839745998 0
0.0900000036 -0.00839745998 0
0.086666666 -0.00839745998 0
0.0833333358 -0.00839745998 0
0.0799999982 -0.00839745998 0
0.0766666681 -0.00839745998 0
0.0733333305 -0.00839745998 0
0.0700000003 -0.00839745998 0
0.0666666701 -0.00839745998 0
0.0633333325 -0.00839745998 0
0.0599999987 -0.00839745998 0
0.0566666685 -0.00839745998 0
0.0533333346 -0.00839745998 0
0.0500000007 -0.00839745998 0
0.148333326 -0.0112842107 0
0.144999996 -0.0112842107 0
0.141666666 -0.0112842107 0
0.138333336 -0.0112842107 0
0.135000005 -0.0112842107 0
0.13166666 -0.0112842107 0
0.12833333 -0.0112842107 0
0.125 -0.0112842107 0
0.12166667 -0.0112842107 0
0.118333332 -0.0112842107 0
0.115000002 -0.0112842107 0
0.111666664 -0.0112842107 0
0.108333334 -0.0112842107 0
0.104999997 -0.0112842107 0
0.101666667 -0.0112842107 0
0.0983333364 -0.0112842107 0
0.0949999988 -0.0112842107 0
0.0916666687 -0.0112842107 0
0.088333331 -0.0112842107 0
0.0850000009 -0.0112842107 0
0.0816666633 -0.0112842107 0
0.0783333331 -0.0112842107 0
0.075000003 -0.0112842107 0
0.0716666654 -0.0112842107 0
0.0683333352 -0.0112842107 0
0.0649999976 -0.0112842107 0
0.0616666675 -0.0112842107 0
0.0583333336 -0.0112842107 0
0.0549999997 -0.0112842107 0
0.0516666658 -0.0112842107 0
0.0483333319 -0.0112842107 0
0.146666661 -0.0141709624 0
0.143333331 -0.0141709624 0
0.140000001 -0.0141709624 0
0.13666667 -0.0141709624 0
0.13333334 -0.0141709624 0
0.129999995 -0.0141709624 0
0.126666665 -0.0141709624 0
0.123333335 -0.0141709624 0
0.119999997 -0.0141709624 0
0.116666667 -0.0141709624 0
0.113333337 -0.0141709624 0
0.109999999 -0.0141709624 0
0.106666669 -0.0141709624 0
0.103333332 -0.0141709624 0
0.100000001 -0.0141709624 0
0.0966666639 -0.0141709624 0
0.0933333337 -0.0141709624 0
0.0900000036 -0.0141709624 0
0.086666666 -0.0141709624 0
0.0833333358 -0.0141709624 0
0.0799999982 -0.0141709624 0
0.0766666681 -0.0141709624 0
0.0733333305 -0.0141709624 0
0.0700000003 -0.0141709624 0
0.0666666701 -0.0141709624 0
0.0633333325 -0.0141709624 0
0.0599999987 -0.0141709624 0
0.0566666685 -0.0141709624 0
0.0533333346 -0.0141709624 0
0.0500000007 -0.0141709624 0
0.0466666669 -0.0141709624 0
0.144999996 -0.0170577131 0
0.141666666 -0.0170577131 0
0.138333336 -0.0170577131 0
0.135000005 -0.0170577131 0
0.13166666 -0.0170577131 0
0.12833333 -0.0170577131 0
0.125 -0.0170577131 0
0.12166667 -0.0170577131 0
0.118333332 -0.0170577131 0
0.115000002 -0.0170577131 0
0.111666664 -0.0170577131 0
0.108333334 -0.0170577131 0
0.104999997 -0.0170577131 0
0.101666667 -0.0170577131 0
0.0983333364 -0.0170577131 0
0.0949999988 -0.0170577131 0
0.0916666687 -0.0170577131 0
0.088333331 -0.0170577131 0
0.0850000009 -0.0170577131 0
0.0816666633 -0.0170577131 0
0.0783333331 -0.0170577131 0
0.075000003 -0.0170577131 0
0.0716666654 -0.0170577131 0
0.0683333352 -0.0170577131 0
0.0649999976 -0.0170577131 0
0.0616666675 -0.0170577131 0
0.0583333336 -0.0170577131 0
0.0549999997 -0.0170577131 0
0.0516666658 -0.0170577131 0
0.0483333319 -0.0170577131 0
0.0450000018 -0.0170577131 0
0.143333331 -0.0199444648 0
0.140000001 -0.0199444648 0
0.13666667 -0.0199444648 0
0.13333334 -0.0199444648 0
0.129999995 -0.0199444648 0
0.126666665 -0.0199444648 0
0.123333335 -0.0199444648 0
0.119999997 -0.0199444648 0
0.116666667 -0.0199444648 0
0.113333337 -0.0199444648 0
0.109999999 -0.0199444648 0
0.106666669 -0.0199444648 0
0.103333332 -0.0199444648 0
0.100000001 -0.0199444648 0
0.0966666639 -0.0199444648 0
0.0933333337 -0.0199444648 0
0.0900000036 -0.0199444648 0
0.086666666 -0.0199444648 0
0.0833333358 -0.0199444648 0
0.0799999982 -0.0199444648 0
0.0766666681 -0.0199444648 0
0.0733333305 -0.0199444648 0
0.0700000003 -0.0199444648 0
0.0666666701 -0.0199444648 0
0.0633333325 -0.0199444648 0
0.0599999987 -0.0199444648 0
0.0566666685 -0.0199444648 0
0.0533333346 -0.0199444648 0
0.0500000007 -0.0199444648 0
0.0466666669 -0.0199444648 0
0.043333333 -0.0199444648 0
0.141666666 -0.0228312165 0
0.138333336 -0.0228312165 0
0.135000005 -0.0228312165 0
0.13166666 -0.0228312165 0
0.12833333 -0.0228312165 0
0.125 -0.0228312165 0
0.12166667 -0.0228312165 0
0.118333332 -0.0228312165 0
0.115000002 -0.0228312165 0
0.111666664 -0.0228312165 0
0.108333334 -0.0228312165 0
0.104999997 -0.0228312165 0
0.101666667 -0.0228312165 0
0.0983333364 -0.0228312165 0
0.0949999988 -0.0228312165 0
0.0916666687 -0.0228312165 0
0.088333331 -0.0228312165 0
0.0850000009 -0.0228312165 0
0.0816666633 -0.0228312165 0
0.0783333331 -0.0228312165 0
0.075000003 -0.0228312165 0
0.0716666654 -0.0228312165 0
0.0683333352 -0.0228312165 0
0.0649999976 -0.0228312165 0
0.0616666675 -0.0228312165 0
0.0583333336 -0.0228312165 0
0.0549999997 -0.0228312165 0
0.0516666658 -0.0228312165 0
0.0483333319 -0.0228312165 0
0.0450000018 -0.0228312165 0
0.0416666679 -0.0228312165 0
0.140000001 -0.0257179681 0
0.13666667 -0.0257179681 0
0.13333334 -0.0257179681 0
0.129999995 -0.0257179681 0
0.126666665 -0.0257179681 0
0.123333335 -0.0257179681 0
0.119999997 -0.0257179681 0
0.116666667 -0.0257179681 0
0.113333337 -0.0257179681 0
0.109999999 -0.0257179681 0
0.106666669 -0.0257179681 0
0.103333332 -0.0257179681 0
0.100000001 -0.0257179681 0
0.0966666639 -0.0257179681 0
0.0933333337 -0.0257179681 0
0.0900000036 -0.0257179681 0
0.086666666 -0.0257179681 0
0.0833333358 -0.0257179681 0
0.0799999982 -0.0257179681 0
0.0766666681 -0.0257179681 0
0.0733333305 -0.0257179681 0
0.0700000003 -0.0257179681 0
0.0666666701 -0.0257179681 0
0.0633333325 -0.0257179681 0
0.0599999987 -0.0257179681 0
0.0566666685 -0.0257179681 0
0.0533333346 -0.0257179681 0
0.0500000007 -0.0257179681 0
0.0466666669 -0.0257179681 0
0.043333333 -0.0257179681 0
0.0399999991 -0.0257179681 0
0.138333336 -0.0286047198 0
0.135000005 -0.0286047198 0
0.13166666 -0.0286047198 0
0.12833333 -0.0286047198 0
0.125 -0.0286047198 0
0.12166667 -0.0286047198 0
0.118333332 -0.0286047198 0
0.115000002 -0.0286047198 0
0.111666664 -0.0286047198 0
0.108333334 -0.0286047198 0
0.104999997 -0.0286047198 0
0.101666667 -0.0286047198 0
0.0983333364 -0.0286047198 0
0.0949999988 -0.0286047198 0
0.0916666687 -0.0286047198 0
0.088333331 -0.0286047198 0
0.0850000009 -0.0286047198 0
0.0816666633 -0.0286047198 0
0.0783333331 -0.0286047198 0
0.075000003 -0.0286047198 0
0.0716666654 -0.0286047198 0
0.0683333352 -0.0286047198 0
0.0649999976 -0.0286047198 0
0.0616666675 -0.0286047198 0
0.0583333336 -0.0286047198 0
0.0549999997 -0.0286047198 0
0.0516666658 -0.0286047198 0
0.0483333319 -0.0286047198 0
0.0450000018 -0.0286047198 0
0.0416666679 -0.0286047198 0
0.038333334 -0.0286047198 0
0.13666667 -0.0314914696 0
0.13333334 -0.0314914696 0
0.129999995 -0.0314914696 0
0.126666665 -0.0314914696 0
0.123333335 -0.0314914696 0
0.119999997 -0.0314914696 0
0.116666667 -0.0314914696 0
0.113333337 -0.0314914696 0
0.109999999 -0.0314914696 0
0.106666669 -0.0314914696 0
0.103333332 -0.0314914696 0
0.100000001 -0.0314914696 0
0.0966666639 -0.0314914696 0
0.0933333337 -0.0314914696 0
0.0900000036 -0.0314914696 0
0.086666666 -0.0314914696 0
0.0833333358 -0.0314914696 0
0.0799999982 -0.0314914696 0
0.0766666681 -0.0314914696 0
0.0733333305 -0.0314914696 0
0.0700000003 -0.0314914696 0
0.0666666701 -0.0314914696 0
0.0633333325 -0.0314914696 0
0.0599999987 -0.0314914696 0
0.0566666685 -0.0314914696 0
0.0533333346 -0.0314914696 0
0.0500000007 -0.0314914696 0
0.0466666669 -0.0314914696 0
0.043333333 -0.0314914696 0
0.0399999991 -0.0314914696 0
0.0366666652 -0.0314914696 0
0.135000005 -0.0343782231 0
0.13166666 -0.0343782231 0
0.12833333 -0.0343782231 0
0.125 -0.0343782231 0
0.12166667 -0.0343782231 0
0.118333332 -0.0343782231 0
0.115000002 -0.0343782231 0
0.111666664 -0.0343782231 0
0.108333334 -0.0343782231 0
0.104999997 -0.0343782231 0
0.101666667 -0.0343782231 0
0.0983333364 -0.0343782231 0
0.0949999988 -0.0343782231 0
0.0916666687 -0.0343782231 0
0.088333331 -0.0343782231 0
0.0850000009 -0.0343782231 0
0.0816666633 -0.0343782231 0
0.0783333331 -0.0343782231 0
0.075000003 -0.0343782231 0
0.0716666654 -0.0343782231 0
0.0683333352 -0.0343782231 0
0.0649999976 -0.0343782231 0
0.0616666675 -0.0343782231 0
0.0583333336 -0.0343782231 0
0.0549999997 -0.0343782231 0
0.0516666658 -0.0343782231 0
0.0483333319 -0.0343782231 0
0.0450000018 -0.0343782231 0
0.0416666679 -0.0343782231 0
0.038333334 -0.0343782231 0
0.0350000001 -0.0343782231 0
0.13333334 -0.0372649729 0
0.129999995 -0.0372649729 0
0.126666665 -0.0372649729 0
0.123333335 -0.0372649729 0
0.119999997 -0.0372649729 0
0.116666667 -0.0372649729 0
0.113333337 -0.0372649729 0
0.109999999 -0.0372649729 0
0.106666669 -0.0372649729 0
0.103333332 -0.0372649729 0
0.100000001 -0.0372649729 0
0.0966666639 -0.0372649729 0
0.0933333337 -0.0372649729 0
0.0900000036 -0.0372649729 0
0.086666666 -0.0372649729 0
0.0833333358 -0.0372649729 0
0.0799999982 -0.0372649729 0
0.0766666681 -0.0372649729 0
0.0733333305 -0.0372649729 0
0.0700000003 -0.0372649729 0
0.0666666701 -0.0372649729 0
0.0633333325 -0.0372649729 0
0.0599999987 -0.0372649729 0
0.0566666685 -0.0372649729 0
0.0533333346 -0.0372649729 0
0.0500000007 -0.0372649729 0
0.0466666669 -0.0372649729 0
0.043333333 -0.0372649729 0
0.0399999991 -0.0372649729 0
0.0366666652 -0.0372649729 0
0.0333333351 -0.0372649729 0
0.13166666 -0.0401517227 0
0.12833333 -0.0401517227 0
0.125 -0.0401517227 0
0.12166667 -0.0401517227 0
0.118333332 -0.0401517227 0
0.115000002 -0.0401517227 0
0.111666664 -0.0401517227 0
[...]
POINT_DATA 961
SCALARS Temp float 1
LOOKUP_TABLE default
407.0991934374435
358.48652121428836
317.93907777689117
286.16994040008115
262.4334454528035
245.50464412960895
233.97144917219345
226.45883942850998
221.77395920344986
218.97284831332865
217.3643107764893
216.47550171989138
216.0020286214782
215.7584190709909
215.63719120636063
215.57893586442307
215.55244262030422
215.54267208907555
215.54453671921556
215.56122037905965
215.60699835060427
215.71575403028825
215.95753350011603
216.46578770161224
217.47633225642107
219.37465179138627
222.74060584328834
228.37181660666513
237.26525144149596
250.55158661023978
269.6464052493223
358.4865361529245
311.6136884615996
274.1006540455487
245.3416723635516
224.28558717256968
209.557512165298
199.70938766337926
193.40792515013777
189.54443466396742
187.27116596103582
185.98526164628967
185.2846748183846
184.91635967416863
184.72919549988438
184.63721075495258
184.59376711893162
184.57502599158147
184.57046655927678
184.57867026005874
184.60764714454936
184.68022889448184
184.84633549274199
185.20476454861782
185.93667265198206
187.3500534982046
189.92839522732297
194.36828588577916
201.58426749167322
212.66041427978683
228.74950384846906
250.5516061750755
317.9390325618125
274.1006335841743
239.53309917870513
213.42410178504113
194.55241710689612
181.4999780361346
172.85725066236068
167.37329330796442
164.03476275555167
162.08191015874937
160.98253164178809
160.3858562354017
160.07311813022213
159.91460388278318
159.83697558670534
159.80076984987775
159.7863044879466
159.78598429326226
159.8016510328722
159.84674519763263
159.95429148157996
160.19288725457088
160.69325137690754
161.68650401661478
163.5511839246046
166.85870204448318
172.3985470072848
181.15934383646908
194.24313368231313
212.66040486965628
237.26526135692797
286.169885277914
245.34164360128966
213.4241030615048
189.49058977492643
172.28689107863804
160.4343460880267
152.6050693702696
147.64305662114853
144.62265298818247
142.85462501942746
141.8579324282584
141.31599672481926
141.0313493315909
140.8867968591852
140.8160319517029
140.78350140714284
140.771963573041
140.7760627216411
140.80097959386325
140.86630692143723
141.01652472893457
141.34034264678286
142.00098158919462
143.27720733363896
145.609715007987
149.63968366101818
156.2188740062154
166.36733795333677
181.1593590844582
201.58428050325102
228.37180814993917
262.4333964538931
224.28556184302323
194.5524037922982
172.2869538312941
156.2806849298966
145.2389059608957
137.92917839764948
133.2833196699314
130.44622782793408
128.7797758289007
127.83705020059578
127.32269525263503
127.05166761238236
126.91369622281925
126.84622380226146
126.81583955575618
126.80691591644639
126.8161231775319
126.85219900844889
126.94140055134697
127.14017524573464
127.55715556954021
128.3858173026831
129.94614987300167
132.72791108128033
137.42063209328052
144.90970951418885
156.21886740117426
172.3985424986335
194.36828405245765
222.74061180518228
245.50459607577852
209.5575458404519
181.5000225471655
160.43431603800605
145.23889437391514
134.71574087726006
127.7210190559234
123.25738476065025
120.52099849560388
118.90787135730503
117.99229334142515
117.49126781421822
117.22660544978966
117.09168534397921
117.02591243115201
116.9971241614367
116.99094781132736
117.0060499512686
117.05486423019907
117.17039971804631
117.4206503865828
117.93236152709757
118.92469452954593
120.74987302664613
123.9320914233342
129.18955844418917
137.4206292997139
149.63968494308696
166.85870900199848
189.92837432243826
219.3746454464118
233.9714573077814
199.70940946827577
172.85729498060013
152.60503417115785
137.92916485898152
127.72101571887126
120.90811246257978
116.54471184171175
113.86122625193515
112.27491948701186
111.37244657818998
110.8776242298153
110.61585745087275
110.48238514594794
110.41765859297429
110.39034141839247
110.38716864030776
110.40877734712876
110.47123077143425
110.61388537437782
110.91499122864681
111.51637387000655
112.65702828870158
114.71183786352114
118.22622980480045
123.93208799034987
132.7279037680036
145.60970430511148
163.55118211505444
187.35005131593886
217.47634104158809
226.45885442752024
193.4079513188572
167.3732388540957
147.64302592418707
133.2833185933241
123.25739449865327
116.54470955819043
112.23405826892541
109.57721393365705
108.00387172461828
107.10749024686717
106.61546584204666
106.35500963665955
106.22229905543503
106.15838430054204
106.1325594330013
106.13258309427479
106.16096027766436
106.23707747111334
106.40580477501207
106.7537668160563
107.4342646462938
108.70016406781716
110.94052116455447
114.71183605293119
120.74987047872148
129.94615144034833
143.27720848994198
161.6864897798289
185.93665352630313
216.46577776856236
221.77396660462418
189.5444678506845
164.0347180773138
144.6226353089232
130.4462297887961
120.52098974779126
113.86122429118554
109.57722017043362
106.9332845234755
105.36597925511981
104.4723389626469
103.98155243857988
103.721715601067
103.58949144209504
103.5263164097146
103.5020127979712
103.50526747178071
103.5402507193799
103.62917275033416
103.82131917364696
104.20958738840532
104.95523255718696
106.31983497285061
108.7001657592427
112.65702869544914
118.92469381281603
128.38581596618545
142.00097745415437
160.6932550465087
185.2047713174331
215.95755229161853
218.97288439026593
187.2711020271054
162.08188757438796
142.85462175648158
128.7797880492569
118.90787040701481
112.27492449027828
108.00387038556433
105.36597816859256
103.801393277397
102.90896122166464
102.41873011895896
102.15922820889145
102.02738713655653
101.96492470192653
101.94211492767955
101.94844684819583
101.9894741216776
102.08962640760903
102.30144485690289
102.72212686601978
103.51791758616322
104.95523136630673
107.43426431913068
111.51637364798317
117.93236101138329
127.55715536764421
141.3403258897701
160.19287272261298
184.84631875691593
215.71574545352092
217.36436953578888
185.98521171048833
160.98251942257042
141.85793788331654
127.83704055741237
117.99229464308328
111.37245342288308
107.10749048343094
104.47234045958
102.90896110748069
102.01706615731042
101.52711088834067
101.26783890088595
101.13634444921405
101.07456518282146
101.05314996616356
101.06223906303964
101.10845352177121
101.21783381623527
101.4451251533415
101.89020902293085
102.72212809129365
104.20958776789612
106.75376571936273
110.91498945634086
117.42064913789572
127.14017237624887
141.0165229860214
159.95429660473604
184.680237405943
215.60698505954795
216.47544171650244
185.28464223785454
160.38585421293976
141.31600896467248
127.32268705996522
117.49127158304819
110.87762029535449
106.61546661953807
103.98154976366588
102.41873010944042
101.5271117819185
101.03734301228742
100.77827859306453
100.64712227309371
100.58598358431809
100.56580629580249
100.57722394220637
100.62762075434932
100.74411516367014
100.98281902244887
101.44512606355958
102.30144553340604
103.82131865494962
106.4058070713721
110.61388878768791
117.17040587518464
126.94139594306519
140.86630122373367
159.8467463830811
184.60764892990792
215.56123434541337
216.00200053596407
184.91635419677635
160.07313547536967
141.03133663595162
127.05166966970344
117.2266169485691
110.61585662814713
106.35501314474736
103.72171431458395
102.15922907185175
101.26783839202957
100.778278299349
100.51945796255765
100.38865788585824
100.32811622344587
100.30899566290223
100.32227788796145
100.37585324581458
100.49750423804201
100.74411447052482
101.21783358902549
102.08962736426724
103.62917077397697
106.2370767103372
110.47122942892906
117.05486211157574
126.85219739079415
140.800978055881
159.80165760531128
184.57864761296753
215.5445404621476
215.7583965188635
184.729194269915
159.91462671279658
140.8867853594255
126.91369994868631
117.09167839252368
110.48238559880168
106.22229638033873
103.5894906201705
102.02738845683704
101.13634382221385
100.64712224813724
100.38865781520029
100.2582808966713
100.198319651171
100.18009109138768
100.19480820058575
100.2506751426883
100.37585314260139
100.62762093858628
101.10845343261268
101.98947471720679
103.5402505390601
106.16096232114519
110.40878097266815
117.00604690250336
126.81611918238676
140.77605794237448
159.78598552588878
184.570470321484
215.5426713524614
215.63719020539168
184.63722977394906
159.83696215311352
140.81603262819664
126.8462385746233
117.02591084057124
110.41766421529384
106.15838369504237
103.52631636832363
101.96492442104986
101.07456516969586
100.58598379377115
100.32811615125715
100.19831972798191
100.13898672240074
100.1215422597662
100.13735174294303
100.1948081368799
100.32227771657429
100.57722370073303
101.06223909278545
101.94844642957784
103.50526561247347
106.13258237807513
110.38716719377331
116.99094687578574
126.80691513672612
140.77196323065854
159.78628881209787
184.57502218041486
215.55243435338807
215.57893640173933
184.59378918444617
159.80075747520394
140.783504525152
126.81582857336183
116.9971239666123
110.39033654036639
106.13255969818073
103.50201374745865
101.94211463599159
101.05315007617202
100.56580578159951
100.30899568600381
100.18009097721286
100.12154226164998
100.1048656164176
100.12154229188104
100.18009102229169
100.30899586263557
100.56580601053426
101.05314980638397
101.94211559377278
103.50201277360138
106.13256177577726
110.3903393315921
116.99712149996134
126.81583702510919
140.7834971202437
159.8007743168143
184.59375746070265
215.5789379954365
215.55246424996676
184.5750027734802
159.78631108115368
140.7719819857801
126.80691265469163
116.99095542111705
110.38716745196017
106.13258508690244
103.50526560863923
101.94844753504795
101.06223985236441
100.57722369315279
100.32227813627937
100.19480817248551
100.13735177324845
100.1215423149416
100.13898677118303
100.19831958837976
100.3281162217179
100.58598343532553
101.07456459169482
101.96492442012024
103.52631468104323
106.15838338083107
110.41765825313614
117.02591210924382
126.84622420572569
140.81601443638834
159.83697274187557
184.63719431792686
215.63718309565695
215.54270367569472
184.57044900422156
159.78599489100003
140.77604530004385
126.81612218187115
117.00604215636797
110.40877742402975
106.16096375447026
103.54024884081109
101.98947516496777
101.1084530026235
100.62762060748804
100.3758530492309
100.25067507649361
100.19480825382871
100.1800911069741
100.19831966938003
100.25828098452578
100.3886579264602
100.64712208357425
101.13634432501867
102.02738780529259
103.58949174295053
106.22229786067882
110.48238355953903
117.09168335835517
126.91369316174858
140.88679518784224
159.91459563401156
184.72918684635619
215.75842025770473
215.5445038601847
184.57866005744646
159.80166794691812
140.80096341089214
126.85220155981172
117.05485695110448
110.47123013267769
106.23707443294644
103.62917131374991
102.08962790373225
101.2178331041691
100.74411497994983
100.49750413010445
100.37585317538887
100.32227787768198
100.30899565652383
100.32811617057466
100.38865796176736
100.51945785323448
100.77827817275647
101.2678387354765
102.15922872606005
103.72171522424578
106.35501117118699
110.61586034184182
117.22661120765027
127.05166250583771
141.03135204784678
160.0731176923341
184.91635981829018
216.00203902036202
215.56121303643306
184.607659796584
159.84672788456734
140.8663044561537
126.94138842641112
117.17040027138498
110.6138909133046
106.40580429596618
103.82131942084723
102.30144480017925
101.44512549009573
100.98281884883562
100.74411502815282
100.62762088180773
100.57722396666176
100.56580629983716
100.58598362290446
100.64712231864156
100.77827849289322
101.03734326171454
101.52711136562937
102.41873068639119
103.98155047444814
106.615465069468
110.87762306257312
117.49126619286722
127.32269333584624
141.3159846504683
160.3858488504289
185.2846661646775
216.47550237597454
215.60699431048812
184.68024691281482
159.9542754005879
141.0165278304108
127.14016460801473
117.42065016872539
110.91498586504133
106.7537666492368
104.20958871465442
102.72212727830319
101.89020995527439
101.44512500028306
101.21783369828783
101.10845348683219
101.06223901138198
101.05314996649982
101.07456524954493
101.13634437766656
101.26783884670468
101.52711105680409
102.01706591735572
102.90896156683816
104.47233913234419
107.10749268046
111.37244940769976
117.99228978065752
127.83705217308417
141.85792705325807
160.98253097777868
185.98526172368202
217.36430752247963
215.71575131858856
184.84629157102884
160.19287614248003
141.3403151995531
127.55714737139611
117.9323642555347
111.51636950046812
107.43426564231437
104.95523023702465
103.51791667846027
102.72212657476389
102.30144459998087
102.08962665847582
101.98947420792646
101.9484468561762
101.94211494200776
101.96492470867015
102.0273870789967
102.15922833423014
102.41872988283507
102.9089615588903
103.80139363129251
105.36597722930576
108.00387218312669
112.27492122482654
118.90787576932928
128.77977278490485
142.85462330690072
162.08191829976977
187.27117718640935
218.9728649258119
215.9575802330133
185.20476258736983
160.69327631944503
142.00097858498802
128.38582658297486
118.9246953646446
112.65703548027592
108.70017151626425
106.3198371865877
104.95523722972422
104.20959007095796
103.82132172534548
103.62917533838964
103.54025320635785
103.50527013309707
103.50201550946439
103.52631892587003
103.58949402120882
103.72171819716037
103.98155467778591
104.47234143002935
105.3659803844916
106.93328731096184
109.57721837032756
113.86122122707796
120.52099692956412
130.44622054800723
144.62264259511474
164.0347564158594
189.5444057598687
221.7739412022397
216.46577093352747
185.93667894822488
161.68649202002806
143.2772106024691
129.94616623222012
120.74987275329615
114.71184480456057
110.94052522156909
108.70016780673569
107.43426890019212
106.75377086901344
106.40580963090075
106.2370820789573
106.16096465963419
106.13258742617589
106.13256371890046
106.15838857515915
106.22230339861035
106.3550137477619
106.61547023747002
107.10749435322367
108.00387489868443
109.57721834997581
112.2340589055171
116.54471514567437
123.25738483932577
133.28331966409945
147.64304726959483
167.3732906891245
193.4079183898477
226.45883823894616
217.47632576292406
187.35007059421181
163.5511777929462
145.60971436204196
132.72790279138866
123.93209551905021
118.2262366914061
114.71183996846827
112.6570344618364
111.51637730335109
110.91499446981065
110.6138886638988
110.47123385741615
110.40878084224806
110.38717224767291
110.39034471171088
110.41766210989343
110.48238861009867
110.61586070134199
110.87762772275984
111.37244946912587
112.27492354583052
113.8612278201034
116.54471346861044
120.90812152765739
127.72101445865277
137.92917645831676
152.60506938239863
172.85724678773568
199.70938565964804
233.97145924908546
219.3746534605193
189.92835891244306
166.85869705164833
149.63969227661585
137.4206225275988
129.18956199671908
123.93208958677275
120.74987142523163
118.92469397029751
117.93236083643001
117.4206511440521
117.17040029635717
117.054864408858
117.00605001786391
116.99094779037183
116.99712424090961
117.02591256024465
117.09168541662832
117.22660588240046
117.4912679707002
117.99229333456923
118.90787247360177
120.520997786027
123.25738801164756
127.72101301943431
134.71574338908658
145.23891257023018
160.4343571149362
181.499992146283
209.55752197196267
245.50459776657678
222.74060955415257
194.3682582033664
172.398537195318
156.21885010160528
144.90970469494843
137.42062752556447
132.72790071503104
129.94614553381388
128.38580962195203
127.55714766976317
127.14016740351863
126.94139234234682
126.85219153016934
126.81611591488823
126.80690815805697
126.81583222218909
126.84621632761508
126.91368857348678
127.05166022387117
127.32268770500488
127.8370434615682
128.779767757113
130.44622065284307
133.2833176414463
137.9291695378227
145.23890658903036
156.28070247330083
172.28690196543002
194.55236602243411
224.28553744462513
262.4333943230072
228.37182045921466
201.5842947998792
181.1593944982279
166.36735466276343
156.21890180354285
149.63970371446973
145.60973473260012
143.27722787492513
142.001001672557
141.34036468404688
141.0165465964228
140.8663281370708
140.80100057993837
140.7760835424936
140.77198463172087
140.7835224588722
140.81605300315545
140.88681827949898
141.03137020467568
141.31601759675476
141.85795381666966
142.8546447833774
144.62267450344604
147.64307052379235
152.6050872844199
160.43437227627766
172.28692945390935
189.49056116104572
213.42406772224186
245.34161462876352
286.16988934988
237.2652720827271
212.66043787355025
194.24314975939765
181.15937208009976
172.39857403784148
166.85872112399164
163.55120968568846
161.6865256071288
160.6932725255988
160.192908328191
159.95431188352657
159.84676656551392
159.80167271304256
159.78600534304667
159.78632613668756
159.80079124182646
159.8369967468838
159.9146251926309
160.07313936715713
160.38587774006757
160.98255184045885
162.0819309034588
164.03478585947548
167.3733094667083
172.8572712508502
181.5000069866363
194.55238235932956
213.42406868830435
239.53306275722605
274.10060096528736
317.93902993671526
250.55160894241408
228.74952738407848
212.66041706640473
201.5842825731608
194.36829275253146
189.9284019811151
187.35006128450274
185.9366800650515
185.2047745666464
184.84634528323977
184.6802377517102
184.60765576081417
184.57867868530855
184.57047544361913
184.57503478247892
184.59377595699237
184.6372199964361
184.7292040456792
184.91636850669076
185.2846840433225
185.9852697102043
187.27117520397556
189.54443828878303
193.4079317471326
199.70939980501484
209.55753266190837
224.2855471798964
245.3416201096252
274.1005941387523
311.6136310280352
358.4864411784379
269.6464216602561
250.55158102088396
237.26525818105335
228.3718223556406
222.74060283137655
219.3746561273124
217.47633195990204
216.46578809901902
215.9575337584897
215.7157525276082
215.60699829783752
215.5612205035153
215.54453667452304
215.54267246715224
215.5524426998066
215.57893594004568
215.63719077878295
215.7584193070794
216.00202876672037
216.47550079332234
217.3643104928499
218.9728501100983
221.77395577649108
226.4588387882902
233.97145325311635
245.50459230717811
262.4333947878706
286.1698796597252
317.9390061461111
358.4864233068471
407.09878225818073
