# vtk DataFile Version 2.0
Unstructured Grid Example
ASCII
DATASET UNSTRUCTURED_GRID

POINTS 961 float
0.150000006 -0.00839745998 0
0.146666661 -0.00839745998 0
0.143333331 -0.00839745998 0
0.140000001 -0.00839745998 0
0.13666667 -0.00839745998 0
0.13333334 -0.00839745998 0
0.129999995 -0.00839745998 0
0.126666665 -0.00839745998 0
0.123333335 -0.00839745998 0
0.119999997 -0.00839745998 0
0.116666667 -0.00839745998 0
0.113333337 -0.00839745998 0
0.109999999 -0.00839745998 0
0.106666669 -0.00839745998 0
0.103333332 -0.00839745998 0
0.100000001 -0.00839745998 0
0.0966666639 -0.00839745998 0
0.0933333337 -0.00839745998 0
0.0900000036 -0.00839745998 0
0.086666666 -0.00839745998 0
0.0833333358 -0.00839745998 0
0.0799999982 -0.00839745998 0
0.0766666681 -0.00839745998 0
0.0733333305 -0.00839745998 0
0.0700000003 -0.00839745998 0
0.0666666701 -0.00839745998 0
0.0633333325 -0.00839745998 0
0.0599999987 -0.00839745998 0
0.0566666685 -0.00839745998 0
0.0533333346 -0.00839745998 0
0.0500000007 -0.00839745998 0
0.148333326 -0.0112842107 0
0.144999996 -0.0112842107 0
0.141666666 -0.0112842107 0
0.138333336 -0.0112842107 0
0.135000005 -0.0112842107 0
0.13166666 -0.0112842107 0
0.12833333 -0.0112842107 0
0.125 -0.0112842107 0
0.12166667 -0.0112842107 0
0.118333332 -0.0112842107 0
0.115000002 -0.0112842107 0
0.111666664 -0.0112842107 0
0.108333334 -0.0112842107 0
0.104999997 -0.0112842107 0
0.101666667 -0.0112842107 0
0.0983333364 -0.0112842107 0
0.0949999988 -0.0112842107 0
0.0916666687 -0.0112842107 0
0.088333331 -0.0112842107 0
0.0850000009 -0.0112842107 0
0.0816666633 -0.0112842107 0
0.0783333331 -0.0112842107 0
0.075000003 -0.0112842107 0
0.0716666654 -0.0112842107 0
0.0683333352 -0.0112842107 0
0.0649999976 -0.0112842107 0
0.0616666675 -0.0112842107 0
0.0583333336 -0.0112842107 0
0.0549999997 -0.0112842107 0
0.0516666658 -0.0112842107 0
0.0483333319 -0.0112842107 0
0.146666661 -0.0141709624 0
0.143333331 -0.0141709624 0
0.140000001 -0.0141709624 0
0.13666667 -0.0141709624 0
0.13333334 -0.0141709624 0
0.129999995 -0.0141709624 0
0.126666665 -0.0141709624 0
0.123333335 -0.0141709624 0
0.119999997 -0.0141709624 0
0.116666667 -0.0141709624 0
0.113333337 -0.0141709624 0
0.109999999 -0.0141709624 0
0.106666669 -0.0141709624 0
0.103333332 -0.0141709624 0
0.100000001 -0.0141709624 0
0.0966666639 -0.0141709624 0
0.0933333337 -0.0141709624 0
0.0900000036 -0.0141709624 0
0.086666666 -0.0141709624 0
0.0833333358 -0.0141709624 0
0.0799999982 -0.0141709624 0
0.0766666681 -0.0141709624 0
0.0733333305 -0.0141709624 0
0.0700000003 -0.0141709624 0
0.0666666701 -0.0141709624 0
0.0633333325 -0.0141709624 0
0.0599999987 -0.0141709624 0
0.0566666685 -0.0141709624 0
0.0533333346 -0.0141709624 0
0.0500000007 -0.0141709624 0
0.0466666669 -0.0141709624 0
0.144999996 -0.0170577131 0
0.141666666 -0.0170577131 0
0.138333336 -0.0170577131 0
0.135000005 -0.0170577131 0
0.13166666 -0.0170577131 0
0.12833333 -0.0170577131 0
0.125 -0.0170577131 0
0.12166667 -0.0170577131 0
0.118333332 -0.0170577131 0
0.115000002 -0.0170577131 0
0.111666664 -0.0170577131 0
0.108333334 -0.0170577131 0
0.104999997 -0.0170577131 0
0.101666667 -0.0170577131 0
0.0983333364 -0.0170577131 0
0.0949999988 -0.0170577131 0
0.0916666687 -0.0170577131 0
0.088333331 -0.0170577131 0
0.0850000009 -0.0170577131 0
0.0816666633 -0.0170577131 0
0.0783333331 -0.0170577131 0
0.075000003 -0.0170577131 0
0.0716666654 -0.0170577131 0
0.0683333352 -0.0170577131 0
0.0649999976 -0.0170577131 0
0.0616666675 -0.0170577131 0
0.0583333336 -0.0170577131 0
0.0549999997 -0.0170577131 0
0.0516666658 -0.0170577131 0
0.0483333319 -0.0170577131 0
0.0450000018 -0.0170577131 0
0.143333331 -0.0199444648 0
0.140000001 -0.0199444648 0
0.13666667 -0.0199444648 0
0.13333334 -0.0199444648 0
0.129999995 -0.0199444648 0
0.126666665 -0.0199444648 0
0.123333335 -0.0199444648 0
0.119999997 -0.0199444648 0
0.116666667 -0.0199444648 0
0.113333337 -0.0199444648 0
0.109999999 -0.0199444648 0
0.106666669 -0.0199444648 0
0.103333332 -0.0199444648 0
0.100000001 -0.0199444648 0
0.0966666639 -0.0199444648 0
0.0933333337 -0.0199444648 0
0.0900000036 -0.0199444648 0
0.086666666 -0.0199444648 0
0.0833333358 -0.0199444648 0
0.0799999982 -0.0199444648 0
0.0766666681 -0.0199444648 0
0.0733333305 -0.0199444648 0
0.0700000003 -0.0199444648 0
0.0666666701 -0.0199444648 0
0.0633333325 -0.0199444648 0
0.0599999987 -0.0199444648 0
0.0566666685 -0.0199444648 0
0.0533333346 -0.0199444648 0
0.0500000007 -0.0199444648 0
0.0466666669 -0.0199444648 0
0.043333333 -0.0199444648 0
0.141666666 -0.0228312165 0
0.138333336 -0.0228312165 0
0.135000005 -0.0228312165 0
0.13166666 -0.0228312165 0
0.12833333 -0.0228312165 0
0.125 -0.0228312165 0
0.12166667 -0.0228312165 0
0.118333332 -0.0228312165 0
0.115000002 -0.0228312165 0
0.111666664 -0.0228312165 0
0.108333334 -0.0228312165 0
0.104999997 -0.0228312165 0
0.101666667 -0.0228312165 0
0.0983333364 -0.0228312165 0
0.0949999988 -0.0228312165 0
0.0916666687 -0.0228312165 0
0.088333331 -0.0228312165 0
0.0850000009 -0.0228312165 0
0.0816666633 -0.0228312165 0
0.0783333331 -0.0228312165 0
0.075000003 -0.0228312165 0
0.0716666654 -0.0228312165 0
0.0683333352 -0.0228312165 0
0.0649999976 -0.0228312165 0
0.0616666675 -0.0228312165 0
0.0583333336 -0.0228312165 0
0.0549999997 -0.0228312165 0
0.0516666658 -0.0228312165 0
0.0483333319 -0.0228312165 0
0.0450000018 -0.0228312165 0
0.0416666679 -0.0228312165 0
0.140000001 -0.0257179681 0
0.13666667 -0.0257179681 0
0.13333334 -0.0257179681 0
0.129999995 -0.0257179681 0
0.126666665 -0.0257179681 0
0.123333335 -0.0257179681 0
0.119999997 -0.0257179681 0
0.116666667 -0.0257179681 0
0.113333337 -0.0257179681 0
0.109999999 -0.0257179681 0
0.106666669 -0.0257179681 0
0.103333332 -0.0257179681 0
0.100000001 -0.0257179681 0
0.0966666639 -0.0257179681 0
0.0933333337 -0.0257179681 0
0.0900000036 -0.0257179681 0
0.086666666 -0.0257179681 0
0.0833333358 -0.0257179681 0
0.0799999982 -0.0257179681 0
0.0766666681 -0.0257179681 0
0.0733333305 -0.0257179681 0
0.0700000003 -0.0257179681 0
0.0666666701 -0.0257179681 0
0.0633333325 -0.0257179681 0
0.0599999987 -0.0257179681 0
0.0566666685 -0.0257179681 0
0.0533333346 -0.0257179681 0
0.0500000007 -0.0257179681 0
0.0466666669 -0.0257179681 0
0.043333333 -0.0257179681 0
0.0399999991 -0.0257179681 0
0.138333336 -0.0286047198 0
0.135000005 -0.0286047198 0
0.13166666 -0.0286047198 0
0.12833333 -0.0286047198 0
0.125 -0.0286047198 0
0.12166667 -0.0286047198 0
0.118333332 -0.0286047198 0
0.115000002 -0.0286047198 0
0.111666664 -0.0286047198 0
0.108333334 -0.0286047198 0
0.104999997 -0.0286047198 0
0.101666667 -0.0286047198 0
0.0983333364 -0.0286047198 0
0.0949999988 -0.0286047198 0
0.0916666687 -0.0286047198 0
0.088333331 -0.0286047198 0
0.0850000009 -0.0286047198 0
0.0816666633 -0.0286047198 0
0.0783333331 -0.0286047198 0
0.075000003 -0.0286047198 0
0.0716666654 -0.0286047198 0
0.0683333352 -0.0286047198 0
0.0649999976 -0.0286047198 0
0.0616666675 -0.0286047198 0
0.0583333336 -0.0286047198 0
0.0549999997 -0.0286047198 0
0.0516666658 -0.0286047198 0
0.0483333319 -0.0286047198 0
0.0450000018 -0.0286047198 0
0.0416666679 -0.0286047198 0
0.038333334 -0.0286047198 0
0.13666667 -0.0314914696 0
0.13333334 -0.0314914696 0
0.129999995 -0.0314914696 0
0.126666665 -0.0314914696 0
0.123333335 -0.0314914696 0
0.119999997 -0.0314914696 0
0.116666667 -0.0314914696 0
0.113333337 -0.0314914696 0
0.109999999 -0.0314914696 0
0.106666669 -0.0314914696 0
0.103333332 -0.0314914696 0
0.100000001 -0.0314914696 0
0.0966666639 -0.0314914696 0
0.0933333337 -0.0314914696 0
0.0900000036 -0.0314914696 0
0.086666666 -0.0314914696 0
0.0833333358 -0.0314914696 0
0.0799999982 -0.0314914696 0
0.0766666681 -0.0314914696 0
0.0733333305 -0.0314914696 0
0.0700000003 -0.0314914696 0
0.0666666701 -0.0314914696 0
0.0633333325 -0.0314914696 0
0.0599999987 -0.0314914696 0
0.0566666685 -0.0314914696 0
0.0533333346 -0.0314914696 0
0.0500000007 -0.0314914696 0
0.0466666669 -0.0314914696 0
0.043333333 -0.0314914696 0
0.0399999991 -0.0314914696 0
0.0366666652 -0.0314914696 0
0.135000005 -0.0343782231 0
0.13166666 -0.0343782231 0
0.12833333 -0.0343782231 0
0.125 -0.0343782231 0
0.12166667 -0.0343782231 0
0.118333332 -0.0343782231 0
0.115000002 -0.0343782231 0
0.111666664 -0.0343782231 0
0.108333334 -0.0343782231 0
0.104999997 -0.0343782231 0
0.101666667 -0.0343782231 0
0.0983333364 -0.0343782231 0
0.0949999988 -0.0343782231 0
0.0916666687 -0.0343782231 0
0.088333331 -0.0343782231 0
0.0850000009 -0.0343782231 0
0.0816666633 -0.0343782231 0
0.0783333331 -0.0343782231 0
0.075000003 -0.0343782231 0
0.0716666654 -0.0343782231 0
0.0683333352 -0.0343782231 0
0.0649999976 -0.0343782231 0
0.0616666675 -0.0343782231 0
0.0583333336 -0.0343782231 0
0.0549999997 -0.0343782231 0
0.0516666658 -0.0343782231 0
0.0483333319 -0.0343782231 0
0.0450000018 -0.0343782231 0
0.0416666679 -0.0343782231 0
0.038333334 -0.0343782231 0
0.0350000001 -0.0343782231 0
0.13333334 -0.0372649729 0
0.129999995 -0.0372649729 0
0.126666665 -0.0372649729 0
0.123333335 -0.0372649729 0
0.119999997 -0.0372649729 0
0.116666667 -0.0372649729 0
0.113333337 -0.0372649729 0
0.109999999 -0.0372649729 0
0.106666669 -0.0372649729 0
0.103333332 -0.0372649729 0
0.100000001 -0.0372649729 0
0.0966666639 -0.0372649729 0
0.0933333337 -0.0372649729 0
0.0900000036 -0.0372649729 0
0.086666666 -0.0372649729 0
0.0833333358 -0.0372649729 0
0.0799999982 -0.0372649729 0
0.0766666681 -0.0372649729 0
0.0733333305 -0.0372649729 0
0.0700000003 -0.0372649729 0
0.0666666701 -0.0372649729 0
0.0633333325 -0.0372649729 0
0.0599999987 -0.0372649729 0
0.0566666685 -0.0372649729 0
0.0533333346 -0.0372649729 0
0.0500000007 -0.0372649729 0
0.0466666669 -0.0372649729 0
0.043333333 -0.0372649729 0
0.0399999991 -0.0372649729 0
0.0366666652 -0.0372649729 0
0.0333333351 -0.0372649729 0
0.13166666 -0.0401517227 0
0.12833333 -0.0401517227 0
0.125 -0.0401517227 0
0.12166667 -0.0401517227 0
0.118333332 -0.0401517227 0
0.115000002 -0.0401517227 0
0.111666664 -0.0401517227 0
[...]
POINT_DATA 961
SCALARS Temp float 1
LOOKUP_TABLE default
166.93573816057147
137.21842496976424
128.30799115316938
126.29637264284712
125.83907034050621
125.73535742768924
125.71180029873375
125.7064341797845
125.70521463448598
125.70493677344525
125.70487036188597
125.70485946040239
125.7048562340126
125.70485508850923
125.70485782649925
125.7048543113143
125.70485455706607
125.70485186280851
125.7048551195468
125.70485489976444
125.70485493161637
125.70485792709037
125.70485528283396
125.70486153750099
125.70490199613768
125.70522576174632
125.70763286846898
125.72595678820396
125.87164736890814
127.02652393875744
140.6676627063044
137.21843705281518
112.70348097869297
107.41892250909615
106.21581012019283
105.94308497092211
105.88111386420293
105.8670129929293
105.86380570357552
105.86307491832524
105.86290818051782
105.86287180667964
105.86286169878262
105.86285944448966
105.86285949356767
105.8628572017562
105.86285902574427
105.86285902438459
105.86286048268022
105.86285910590462
105.86285904625959
105.86285947626071
105.86285756543336
105.86286177046429
105.86287922000908
105.86300811258705
105.86394264098584
105.87087440022063
105.92309984438296
106.31605022659997
109.5823546572503
127.02652966525224
128.30798756020317
107.41892588672519
102.71553666147886
101.65071206622503
101.40860288885389
101.35348572264168
101.34092895873931
101.33806750064333
101.33741468058756
101.33726568726536
101.33723206212389
101.33722425267445
101.33722251737991
101.33722193469251
101.33722225142337
101.33722190155258
101.33722175463416
101.33722202530207
101.33722198621665
101.33722203800777
101.33722191524765
101.33722325377151
101.33722932414689
101.33727430926847
101.33759606703602
101.33988113170643
101.35608131832615
101.46884907933135
102.24853688380882
106.31604435920886
125.87164508672151
126.29637177335735
106.21581533967839
101.6507142341339
100.61160775540577
100.37488855124779
100.3209333795111
100.30863230853292
100.30582726406061
100.3051875522968
100.30504176016794
100.30500840489307
100.30500080538852
100.30499905323029
100.30499862135137
100.30499859627506
100.30499856733842
100.30499865089868
100.30499857888444
100.30499858408116
100.30499859021009
100.30499886049296
100.30500106522386
100.30501580997142
100.30511730538379
100.30580715407847
100.31042662028892
100.3403778600702
100.52552578017598
101.46884973739758
105.92310459728799
125.72595683250071
125.8390774213139
105.9430871561802
101.40860487074698
100.37488984093987
100.13919158450594
100.08544410036083
100.0731866763267
100.07039113485598
100.06975354257592
100.06960813958243
100.06957496890443
100.0695673987798
100.06956567388671
100.06956529958565
100.06956519088267
100.06956516427226
100.06956517443646
100.06956517351767
100.06956518115766
100.06956527790751
100.06956597599066
100.06957049372849
100.06960055998522
100.06979673169205
100.07104449555955
100.07866360277734
100.12238567262254
100.34037755245262
101.35608140470016
105.87087389601449
125.70763520901004
125.73535770040876
105.88111899718916
101.35348804325588
100.3209324242529
100.08544381695928
100.03173563809828
100.0194860679964
100.01669218573235
100.01605496301933
100.01590961812441
100.01587646694433
100.01586890621213
100.01586717981927
100.0158667896065
100.01586669956359
100.01586668388244
100.01586667616932
100.01586667842342
100.01586670830645
100.0158669104491
100.01586824224395
100.01587675758904
100.01593016709107
100.01625487601954
100.018141463693
100.02841309615516
100.07866358382273
100.31042675008281
101.33988238033649
105.86393589003477
125.70521896679422
125.71179453535561
105.86701876359196
101.34093305138691
100.30863036576305
100.0731863796453
100.01948605017951
100.00723793979977
100.00444436356932
100.00380719690669
100.00366186870679
100.0036287218849
100.00362116171914
100.00361943833613
100.00361904406066
100.00361895408214
100.00361893458938
100.00361893104007
100.00361893896395
100.0036189978362
100.00361937369752
100.0036216993438
100.0036357744629
100.00371804555154
100.00417676977162
100.00657897865611
100.01814145409806
100.07104444685797
100.3058069996442
101.33759509180986
105.86300571133248
125.70490889736884
125.70643907754626
105.86380873412683
101.33806092983572
100.30582554779625
100.07039101091165
100.01669222379168
100.00444436333227
100.00165084183368
100.00101368332801
100.00086835826382
100.00083521201469
100.00082765181129
100.00082592763857
100.0008255343387
100.00082544494215
100.00082542467513
100.00082542260708
100.00082543816467
100.00082554038629
100.0008261583407
100.00082977666712
100.00085021053972
100.00096031432584
100.00151994790886
100.00417676778407
100.0162548762355
100.06979673909761
100.30511726526703
101.33727307137724
105.86287194695478
125.7048541063161
125.70520734140337
105.86308138316821
101.33740534840545
100.30518663784939
100.06975359443513
100.01605496090009
100.00380720063427
100.0010136864716
100.00037652902157
100.00023120466363
100.0001980584426
100.00019049841552
100.000188774034
100.00018838074513
100.0001882911958
100.00018827146569
100.00018827134915
100.00018829764946
100.00018845783936
100.00018936983851
100.000194368374
100.00022054345419
100.0003504969902
100.00096031529766
100.00371804440604
100.01593015901439
100.06960055460713
100.30501556619204
101.3372293578102
105.86286290221194
125.70486340885573
125.70492350961814
105.8628762152423
101.3372623246023
100.30504186868122
100.06960841231455
100.01590963021093
100.00366187815419
100.00086835892344
100.00023120456795
100.00008588001675
100.0000527339218
100.0000451738466
100.00004344951351
100.00004305626743
100.00004296675613
100.00004294751463
100.0000429500002
100.00004298979151
100.00004321589554
100.00004442418997
100.00005060141646
100.00008069629783
100.00022054326017
100.00085021001615
100.00363577487028
100.01587675844847
100.06957050311954
100.30500050534006
101.33722145069032
105.86285221035882
125.70484806868869
125.70489360986022
105.8628496608355
101.33723250520885
100.30500905210708
100.06957501107688
100.01587648492966
100.00362873349407
100.00083521155544
100.0001980586168
100.0000527338998
100.00001958784682
100.00001202775509
100.00001030343343
100.00000991019878
100.00000982081548
100.00000980219286
100.0000098077779
100.00000986217314
100.00001015129503
100.00001160072816
100.00001855432306
100.00005060145887
100.00019436845704
100.00082977630287
100.00362169773386
100.01586823727985
100.06956589525839
100.30499876667955
101.33722227792828
105.8628644451418
125.70485196004333
125.70484434994161
105.86285869357766
101.33722640393184
100.30500177124784
100.06956735674149
100.01586892029515
100.00362115819692
100.00082765163927
100.00019049796104
100.00004517384757
100.0000120277715
100.00000446767045
100.00000274335873
100.00000235015088
100.00000226091454
100.00000224299579
100.00000225177735
100.0000023194856
100.00000265782077
100.00000426139972
100.00001160075033
100.00004442423348
100.00018936971178
100.0008261589497
100.00361937594789
100.01586692939145
100.06956522970256
100.30499840454044
101.33722256990713
105.86285867447293
125.70486238986562
125.70485793701891
105.86286648974115
101.33722563602886
100.30499901878976
100.0695656752864
100.01586721782866
100.00361943358662
100.00082592912428
100.00018877372176
100.00004344955958
100.00001030342344
100.00000274335463
100.00000101905374
100.00000062588636
100.00000053681497
100.00000051959626
100.00000053118008
100.00000060891557
100.00000097791657
100.00000265781499
100.00001015129108
100.00004321594976
100.00018845749024
100.00082554013076
100.00361899696522
100.01586669697711
100.06956516268566
100.30499857913193
101.33722288598548
105.86284898444357
125.70485083361585
125.7048533997741
105.86286283945455
101.3372255658208
100.30499807135757
100.06956526334952
100.01586676769264
100.00361904295117
100.00082553352166
100.0001883805837
100.00004305634566
100.00000991017816
100.00000235014868
100.00000062588593
100.00000023279006
100.00000014389977
100.00000012729109
100.00000014093098
100.0000002247865
100.000000608915
100.00000231948732
100.00000986216857
100.00004298981399
100.00018829760131
100.0008254389482
100.00361894311837
100.01586666943895
100.06956514215403
100.30499845880159
101.33722111178689
105.8628608708069
125.7048536467152
125.70485923488177
105.86286506092469
101.33722047949124
100.30499822221994
100.06956533236607
100.01586668615634
100.00361896179352
100.00082544414694
100.00018829112649
100.00004296674138
100.00000982080938
100.00000226091676
100.00000053681448
100.00000014389991
100.00000005525288
100.00000003914282
100.00000005405067
100.00000014093077
100.00000053117935
100.00000225177462
100.0000098077798
100.00004294998107
100.00018827107736
100.00082542248342
100.00361892863718
100.01586667342596
100.06956516164395
100.3049985238553
101.33722036837594
105.86285814923662
125.70485303727686
125.70485079012377
105.86286471276448
101.33721850819163
100.3049985119411
100.06956510581145
100.01586667819464
100.00361893036546
100.00082542441714
100.00018827159178
100.00004294747004
100.00000980219284
100.00000224299097
100.00000051959624
100.00000012729083
100.00000003914278
100.0000000235198
100.00000003914282
100.00000012729086
100.0000005195972
100.00000224299296
100.00000980218593
100.00004294755202
100.00018827145311
100.00082542566163
100.00361893238914
100.01586667169224
100.06956514485573
100.30499833687924
101.3372229638333
105.86285615396417
125.70485711248423
125.70485010273924
105.86284582197948
101.33722189501414
100.30499936099137
100.0695651265725
100.01586670456362
100.00361892674246
100.00082542294709
100.00018827106351
100.00004295002526
100.00000980779947
100.00000225177368
100.0000005311811
100.00000014093082
100.00000005405069
100.00000003914285
100.000000055253
100.00000014389957
100.00000053681478
100.00000226091265
100.0000098208002
100.00004296674216
100.00018829096379
100.00082544420007
100.00361895378245
100.01586669850761
100.06956521045217
100.30499814901047
101.33722184708407
105.86285363872109
125.70485065915842
125.70486658601088
105.86285125548272
101.33722357652643
100.30499832607643
100.06956513951974
100.01586665123232
100.00361893661373
100.00082543958047
100.00018829727036
100.00004298985009
100.00000986216072
100.00000231948295
100.00000060891497
100.00000022478646
100.00000014093102
100.00000012729123
100.00000014389968
100.0000002327902
100.00000062588646
100.00000235014706
100.00000991019536
100.00004305629984
100.0001883807943
100.00082553384995
100.0036190424154
100.01586678690188
100.06956524377668
100.30499872003064
101.3372210786307
105.86285625296425
125.7048544032841
125.70484614094217
105.86285903001813
101.33722511386894
100.30499794106284
100.06956518762868
100.01586667097473
100.00361899636562
100.00082553953037
100.00018845754653
100.00004321600139
100.00001015127891
100.0000026578206
100.00000097791619
100.00000060891543
100.00000053118004
100.00000051959621
100.00000053681491
100.00000062588661
100.00000101905319
100.00000274335426
100.00001030342985
100.00004344955006
100.00018877389498
100.00082592825426
100.00361944112979
100.01586720321987
100.06956563736902
100.30499908831266
101.33722233364279
105.86285826544318
125.70485813927431
125.70485809962057
105.86286531301113
101.33722071278213
100.30499815177559
100.0695651456065
100.0158669067648
100.00361937999449
100.00082615766647
100.00018936989107
100.00004442420463
100.00001160073289
100.00000426139961
100.00000265782008
100.00000231948584
100.00000225177838
100.00000224299588
100.00000226091443
100.00000235015115
100.00000274335801
100.00000446767393
100.00001202775948
100.00004517389642
100.000190498074
100.00082765166918
100.0036211614309
100.01586889722965
100.06956740075715
100.30500036282602
101.33722317232358
105.8628565569312
125.70485623427167
125.70485387929476
105.86286667194616
101.33721824812562
100.30499890701678
100.06956581813525
100.01586824028152
100.00362169553496
100.0008297765701
100.00019436869292
100.00005060141082
100.00001855434796
100.00001160073025
100.00001015129453
100.00000986217132
100.00000980777712
100.0000098021932
100.00000982081822
100.00000991019787
100.0000103034338
100.00001202775664
100.00001958784395
100.00005273394561
100.00019805841671
100.00083521287675
100.00362872614514
100.01587645602508
100.06957495854924
100.30500811008586
101.33723151407463
105.86287027163883
125.70487037613441
125.70483994837831
105.86283853198184
101.33722092136782
100.30500037203407
100.06957042886022
100.01587677680425
100.00363576913145
100.00085021083147
100.00022054316682
100.00008069623203
100.00005060141125
100.00004442418438
100.0000432158953
100.00004298981007
100.000042950002
100.00004294751297
100.00004296676065
100.00004305626088
100.00004344951374
100.00004517384444
100.00005273393943
100.00008588003652
100.00023120447914
100.0008683588783
100.00366186933552
100.01590963084898
100.06960809287256
100.30504155397063
101.33726658725958
105.86291111641295
125.7049456473847
125.7048728544683
105.86285584079332
101.33723254185482
100.30501558498706
100.06960062301533
100.01593016198471
100.00371804916733
100.00096031749278
100.00035049735845
100.00022054400198
100.00019436887433
100.00018937025845
100.00018845822225
100.00018829805559
100.00018827177799
100.00018827193865
100.00018829159923
100.00018838117394
100.00018877446107
100.00019049881789
100.0001980588925
100.0002312049834
100.00037652943132
100.0010136838666
100.00380719036994
100.01605494308207
100.06975343946753
100.305187127418
101.33741384037359
105.86306470676904
125.7052050608841
125.70485725980184
105.8628820918155
101.3372737228638
100.30511711079446
100.069796866793
100.01625486656279
100.00417677634684
100.0015199501861
100.00096031610197
100.00085021232738
100.00082977848349
100.00082616021686
100.00082554265236
100.00082544011723
100.00082542448813
100.00082542665449
100.00082544671142
100.00082553623592
100.00082592956252
100.00082765383868
100.00083521388538
100.00086836013548
100.00101368507735
100.0016508408053
100.00444436485321
100.01669216715639
100.07039106754843
100.30582700031745
101.33806664167109
105.86380541756482
125.7064349010157
125.70490334607278
105.86301508233004
101.33759384634376
100.30580708896619
100.07104443561998
100.01814147245167
100.00657898892416
100.00417677341754
100.0037180501776
100.00363578022224
100.00362170351433
100.0036193771989
100.00361900184564
100.00361894341383
100.00361893621223
100.0036189384035
100.0036189584762
100.00361904845688
100.00361944230903
100.00362116651516
100.00362872620003
100.00366187311923
100.00380720023138
100.00444436721307
100.007237948035
100.0194860600284
100.0731866388398
100.30863223445287
101.34092881083532
105.86701369391359
125.71179455180982
125.70521835966463
105.86392959140005
101.33988036492394
100.31042712318093
100.07866350514557
100.02841311441924
100.01814146715061
100.0162548766427
100.01593016490754
100.01587675619842
100.01586824221124
100.01586691829013
100.01586671038734
100.01586667835976
100.01586667771991
100.01586668191665
100.01586670023343
100.01586679096516
100.01586718279064
100.0158689063035
100.0158764685664
100.01590962106486
100.0160549603624
100.0166921882525
100.01948606452137
100.03173568057967
100.08544417648385
100.32093371959415
101.35348667616209
105.88111281895776
125.73535519357499
125.70763276049294
105.8708635597047
101.3560812386007
100.34037733084108
100.12238562002221
100.07866353911724
100.07104441357122
100.06979665310574
100.06960050813744
100.06957041250551
100.06956588319197
100.0695651979861
100.0695651052211
100.06956510898605
100.06956508688296
100.0695650885358
100.06956511678268
100.06956521511077
100.06956560508281
100.06956732099238
100.0695748916521
100.06960805471707
100.06975347692126
100.07039106304636
100.07318658126734
100.08544409386334
100.13919195323724
100.37488866644479
101.40860264056168
105.94308315125451
125.8390817874838
125.72596006960008
105.92310523698546
101.46885364230045
100.52552636015187
100.34037857862984
100.31042737201493
100.30580783705354
100.3051179076824
100.30501643501557
100.30500171808376
100.30499969286574
100.30499928693995
100.30499921945331
100.30499926447014
100.30499926925073
100.30499925053486
100.30499927789997
100.30499933432634
100.30499971100788
100.30500148264734
100.30500912654867
100.30504236837514
100.30518822141447
100.3058279259276
100.30863297556259
100.32093433820506
100.3748894108573
100.61160714263707
101.65071024152279
106.21580111228296
126.29636480872325
125.87165037826168
106.31605428213186
102.24853941013194
101.46885147121068
101.35608375161799
101.33988350710072
101.3375983615426
101.33727718020853
101.33723158532757
101.33722551886392
101.33722429761391
101.33722434080917
101.33722463615563
101.33722420261977
101.33722427774028
101.33722435453045
101.33722451291484
101.33722451702245
101.3372248260388
101.3372267170176
101.33723430003927
101.33726832148493
101.33741712315671
101.33806950135954
101.34093160797494
101.35348842446462
101.40860458639229
101.65071286901794
102.71553478935532
107.41891894077384
128.30799170483377
127.02652817910118
109.58236605871654
106.31605321971345
105.92310298012023
105.87087977709325
105.8639460896715
105.8630103847044
105.86288118786186
105.86286598875509
105.8628646221898
105.86286273357486
105.86286204405519
105.86286261507755
105.862863662921
105.86286273592485
105.86286276197092
105.8628618515348
105.86286215634722
105.86286359446598
105.86286608968695
105.86287429510904
105.86291147547269
105.86307866399662
105.86381008304046
105.86702012351307
105.88111678130527
105.94308481725177
106.21581310372974
107.4189226700166
112.70348728622224
137.21843152080527
140.66767009224847
127.02652143530408
125.87164708924804
125.72595974873015
125.70763101937038
125.70522641935968
125.70490552099206
125.70486576337711
125.70485734311401
125.7048531290753
125.7048556851513
125.70485732771984
125.70485616370655
125.70485447093193
125.7048558730427
125.7048556428681
125.70485722726721
125.70485774203411
125.70485713287103
125.70485876632063
125.70487375033905
125.70493872833737
125.70521598391147
125.70643609319104
125.71179451312416
125.73535688067349
125.83907762249984
126.29637273436484
128.30799009526686
137.21842512964355
166.93559345239032
