# vtk DataFile Version 2.0
Unstructured Grid Example
ASCII
DATASET UNSTRUCTURED_GRID

POINTS 961 float
0.150000006 -0.00839745998 0
0.146666661 -0.00839745998 0
0.143333331 -0.00839745998 0
0.140000001 -0.00839745998 0
0.13666667 -0.00839745998 0
0.13333334 -0.00839745998 0
0.129999995 -0.00839745998 0
0.126666665 -0.00839745998 0
0.123333335 -0.00839745998 0
0.119999997 -0.00839745998 0
0.116666667 -0.00839745998 0
0.113333337 -0.00839745998 0
0.109999999 -0.00839745998 0
0.106666669 -0.00839745998 0
0.103333332 -0.00839745998 0
0.100000001 -0.00839745998 0
0.0966666639 -0.00839745998 0
0.0933333337 -0.00839745998 0
0.0900000036 -0.00839745998 0
0.086666666 -0.00839745998 0
0.0833333358 -0.00839745998 0
0.0799999982 -0.00839745998 0
0.0766666681 -0.00839745998 0
0.0733333305 -0.00839745998 0
0.0700000003 -0.00839745998 0
0.0666666701 -0.00839745998 0
0.0633333325 -0.00839745998 0
0.0599999987 -0.00839745998 0
0.0566666685 -0.00839745998 0
0.0533333346 -0.00839745998 0
0.0500000007 -0.00839745998 0
0.148333326 -0.0112842107 0
0.144999996 -0.0112842107 0
0.141666666 -0.0112842107 0
0.138333336 -0.0112842107 0
0.135000005 -0.0112842107 0
0.13166666 -0.0112842107 0
0.12833333 -0.0112842107 0
0.125 -0.0112842107 0
0.12166667 -0.0112842107 0
0.118333332 -0.0112842107 0
0.115000002 -0.0112842107 0
0.111666664 -0.0112842107 0
0.108333334 -0.0112842107 0
0.104999997 -0.0112842107 0
0.101666667 -0.0112842107 0
0.0983333364 -0.0112842107 0
0.0949999988 -0.0112842107 0
0.0916666687 -0.0112842107 0
0.088333331 -0.0112842107 0
0.0850000009 -0.0112842107 0
0.0816666633 -0.0112842107 0
0.0783333331 -0.0112842107 0
0.075000003 -0.0112842107 0
0.0716666654 -0.0112842107 0
0.0683333352 -0.0112842107 0
0.0649999976 -0.0112842107 0
0.0616666675 -0.0112842107 0
0.0583333336 -0.0112842107 0
0.0549999997 -0.0112842107 0
0.0516666658 -0.0112842107 0
0.0483333319 -0.0112842107 0
0.146666661 -0.0141709624 0
0.143333331 -0.0141709624 0
0.140000001 -0.0141709624 0
0.13666667 -0.0141709624 0
0.13333334 -0.0141709624 0
0.129999995 -0.0141709624 0
0.126666665 -0.0141709624 0
0.123333335 -0.0141709624 0
0.119999997 -0.0141709624 0
0.116666667 -0.0141709624 0
0.113333337 -0.0141709624 0
0.109999999 -0.0141709624 0
0.106666669 -0.0141709624 0
0.103333332 -0.0141709624 0
0.100000001 -0.0141709624 0
0.0966666639 -0.0141709624 0
0.0933333337 -0.0141709624 0
0.0900000036 -0.0141709624 0
0.086666666 -0.0141709624 0
0.0833333358 -0.0141709624 0
0.0799999982 -0.0141709624 0
0.0766666681 -0.0141709624 0
0.0733333305 -0.0141709624 0
0.0700000003 -0.0141709624 0
0.0666666701 -0.0141709624 0
0.0633333325 -0.0141709624 0
0.0599999987 -0.0141709624 0
0.0566666685 -0.0141709624 0
0.0533333346 -0.0141709624 0
0.0500000007 -0.0141709624 0
0.0466666669 -0.0141709624 0
0.144999996 -0.0170577131 0
0.141666666 -0.0170577131 0
0.138333336 -0.0170577131 0
0.135000005 -0.0170577131 0
0.13166666 -0.0170577131 0
0.12833333 -0.0170577131 0
0.125 -0.0170577131 0
0.12166667 -0.0170577131 0
0.118333332 -0.0170577131 0
0.115000002 -0.0170577131 0
0.111666664 -0.0170577131 0
0.108333334 -0.0170577131 0
0.104999997 -0.0170577131 0
0.101666667 -0.0170577131 0
0.0983333364 -0.0170577131 0
0.0949999988 -0.0170577131 0
0.0916666687 -0.0170577131 0
0.088333331 -0.0170577131 0
0.0850000009 -0.0170577131 0
0.0816666633 -0.0170577131 0
0.0783333331 -0.0170577131 0
0.075000003 -0.0170577131 0
0.0716666654 -0.0170577131 0
0.0683333352 -0.0170577131 0
0.0649999976 -0.0170577131 0
0.0616666675 -0.0170577131 0
0.0583333336 -0.0170577131 0
0.0549999997 -0.0170577131 0
0.0516666658 -0.0170577131 0
0.0483333319 -0.0170577131 0
0.0450000018 -0.0170577131 0
0.143333331 -0.0199444648 0
0.140000001 -0.0199444648 0
0.13666667 -0.0199444648 0
0.13333334 -0.0199444648 0
0.129999995 -0.0199444648 0
0.126666665 -0.0199444648 0
0.123333335 -0.0199444648 0
0.119999997 -0.0199444648 0
0.116666667 -0.0199444648 0
0.113333337 -0.0199444648 0
0.109999999 -0.0199444648 0
0.106666669 -0.0199444648 0
0.103333332 -0.0199444648 0
0.100000001 -0.0199444648 0
0.0966666639 -0.0199444648 0
0.0933333337 -0.0199444648 0
0.0900000036 -0.0199444648 0
0.086666666 -0.0199444648 0
0.0833333358 -0.0199444648 0
0.0799999982 -0.0199444648 0
0.0766666681 -0.0199444648 0
0.0733333305 -0.0199444648 0
0.0700000003 -0.0199444648 0
0.0666666701 -0.0199444648 0
0.0633333325 -0.0199444648 0
0.0599999987 -0.0199444648 0
0.0566666685 -0.0199444648 0
0.0533333346 -0.0199444648 0
0.0500000007 -0.0199444648 0
0.0466666669 -0.0199444648 0
0.043333333 -0.0199444648 0
0.141666666 -0.0228312165 0
0.138333336 -0.0228312165 0
0.135000005 -0.0228312165 0
0.13166666 -0.0228312165 0
0.12833333 -0.0228312165 0
0.125 -0.0228312165 0
0.12166667 -0.0228312165 0
0.118333332 -0.0228312165 0
0.115000002 -0.0228312165 0
0.111666664 -0.0228312165 0
0.108333334 -0.0228312165 0
0.104999997 -0.0228312165 0
0.101666667 -0.0228312165 0
0.0983333364 -0.0228312165 0
0.0949999988 -0.0228312165 0
0.0916666687 -0.0228312165 0
0.088333331 -0.0228312165 0
0.0850000009 -0.0228312165 0
0.0816666633 -0.0228312165 0
0.0783333331 -0.0228312165 0
0.075000003 -0.0228312165 0
0.0716666654 -0.0228312165 0
0.0683333352 -0.0228312165 0
0.0649999976 -0.0228312165 0
0.0616666675 -0.0228312165 0
0.0583333336 -0.0228312165 0
0.0549999997 -0.0228312165 0
0.0516666658 -0.0228312165 0
0.0483333319 -0.0228312165 0
0.0450000018 -0.0228312165 0
0.0416666679 -0.0228312165 0
0.140000001 -0.0257179681 0
0.13666667 -0.0257179681 0
0.13333334 -0.0257179681 0
0.129999995 -0.0257179681 0
0.126666665 -0.0257179681 0
0.123333335 -0.0257179681 0
0.119999997 -0.0257179681 0
0.116666667 -0.0257179681 0
0.113333337 -0.0257179681 0
0.109999999 -0.0257179681 0
0.106666669 -0.0257179681 0
0.103333332 -0.0257179681 0
0.100000001 -0.0257179681 0
0.0966666639 -0.0257179681 0
0.0933333337 -0.0257179681 0
0.0900000036 -0.0257179681 0
0.086666666 -0.0257179681 0
0.0833333358 -0.0257179681 0
0.0799999982 -0.0257179681 0
0.0766666681 -0.0257179681 0
0.0733333305 -0.0257179681 0
0.0700000003 -0.0257179681 0
0.0666666701 -0.0257179681 0
0.0633333325 -0.0257179681 0
0.0599999987 -0.0257179681 0
0.0566666685 -0.0257179681 0
0.0533333346 -0.0257179681 0
0.0500000007 -0.0257179681 0
0.0466666669 -0.0257179681 0
0.043333333 -0.0257179681 0
0.0399999991 -0.0257179681 0
0.138333336 -0.0286047198 0
0.135000005 -0.0286047198 0
0.13166666 -0.0286047198 0
0.12833333 -0.0286047198 0
0.125 -0.0286047198 0
0.12166667 -0.0286047198 0
0.118333332 -0.0286047198 0
0.115000002 -0.0286047198 0
0.111666664 -0.0286047198 0
0.108333334 -0.0286047198 0
0.104999997 -0.0286047198 0
0.101666667 -0.0286047198 0
0.0983333364 -0.0286047198 0
0.0949999988 -0.0286047198 0
0.0916666687 -0.0286047198 0
0.088333331 -0.0286047198 0
0.0850000009 -0.0286047198 0
0.0816666633 -0.0286047198 0
0.0783333331 -0.0286047198 0
0.075000003 -0.0286047198 0
0.0716666654 -0.0286047198 0
0.0683333352 -0.0286047198 0
0.0649999976 -0.0286047198 0
0.0616666675 -0.0286047198 0
0.0583333336 -0.0286047198 0
0.0549999997 -0.0286047198 0
0.0516666658 -0.0286047198 0
0.0483333319 -0.0286047198 0
0.0450000018 -0.0286047198 0
0.0416666679 -0.0286047198 0
0.038333334 -0.0286047198 0
0.13666667 -0.0314914696 0
0.13333334 -0.0314914696 0
0.129999995 -0.0314914696 0
0.126666665 -0.0314914696 0
0.123333335 -0.0314914696 0
0.119999997 -0.0314914696 0
0.116666667 -0.0314914696 0
0.113333337 -0.0314914696 0
0.109999999 -0.0314914696 0
0.106666669 -0.0314914696 0
0.103333332 -0.0314914696 0
0.100000001 -0.0314914696 0
0.0966666639 -0.0314914696 0
0.0933333337 -0.0314914696 0
0.0900000036 -0.0314914696 0
0.086666666 -0.0314914696 0
0.0833333358 -0.0314914696 0
0.0799999982 -0.0314914696 0
0.0766666681 -0.0314914696 0
0.0733333305 -0.0314914696 0
0.0700000003 -0.0314914696 0
0.0666666701 -0.0314914696 0
0.0633333325 -0.0314914696 0
0.0599999987 -0.0314914696 0
0.0566666685 -0.0314914696 0
0.0533333346 -0.0314914696 0
0.0500000007 -0.0314914696 0
0.0466666669 -0.0314914696 0
0.043333333 -0.0314914696 0
0.0399999991 -0.0314914696 0
0.0366666652 -0.0314914696 0
0.135000005 -0.0343782231 0
0.13166666 -0.0343782231 0
0.12833333 -0.0343782231 0
0.125 -0.0343782231 0
0.12166667 -0.0343782231 0
0.118333332 -0.0343782231 0
0.115000002 -0.0343782231 0
0.111666664 -0.0343782231 0
0.108333334 -0.0343782231 0
0.104999997 -0.0343782231 0
0.101666667 -0.0343782231 0
0.0983333364 -0.0343782231 0
0.0949999988 -0.0343782231 0
0.0916666687 -0.0343782231 0
0.088333331 -0.0343782231 0
0.0850000009 -0.0343782231 0
0.0816666633 -0.0343782231 0
0.0783333331 -0.0343782231 0
0.075000003 -0.0343782231 0
0.0716666654 -0.0343782231 0
0.0683333352 -0.0343782231 0
0.0649999976 -0.0343782231 0
0.0616666675 -0.0343782231 0
0.0583333336 -0.0343782231 0
0.0549999997 -0.0343782231 0
0.0516666658 -0.0343782231 0
0.0483333319 -0.0343782231 0
0.0450000018 -0.0343782231 0
0.0416666679 -0.0343782231 0
0.038333334 -0.0343782231 0
0.0350000001 -0.0343782231 0
0.13333334 -0.0372649729 0
0.129999995 -0.0372649729 0
0.126666665 -0.0372649729 0
0.123333335 -0.0372649729 0
0.119999997 -0.0372649729 0
0.116666667 -0.0372649729 0
0.113333337 -0.0372649729 0
0.109999999 -0.0372649729 0
0.106666669 -0.0372649729 0
0.103333332 -0.0372649729 0
0.100000001 -0.0372649729 0
0.0966666639 -0.0372649729 0
0.0933333337 -0.0372649729 0
0.0900000036 -0.0372649729 0
0.086666666 -0.0372649729 0
0.0833333358 -0.0372649729 0
0.0799999982 -0.0372649729 0
0.0766666681 -0.0372649729 0
0.0733333305 -0.0372649729 0
0.0700000003 -0.0372649729 0
0.0666666701 -0.0372649729 0
0.0633333325 -0.0372649729 0
0.0599999987 -0.0372649729 0
0.0566666685 -0.0372649729 0
0.0533333346 -0.0372649729 0
0.0500000007 -0.0372649729 0
0.0466666669 -0.0372649729 0
0.043333333 -0.0372649729 0
0.0399999991 -0.0372649729 0
0.0366666652 -0.0372649729 0
0.0333333351 -0.0372649729 0
0.13166666 -0.0401517227 0
0.12833333 -0.0401517227 0
0.125 -0.0401517227 0
0.12166667 -0.0401517227 0
0.118333332 -0.0401517227 0
0.115000002 -0.0401517227 0
0.111666664 -0.0401517227 0
[...]
POINT_DATA 961
SCALARS Temp float 1
LOOKUP_TABLE default
360.72292190227347
311.0361271849673
271.84746287465083
243.51958331208604
224.37280602672612
212.24106590716792
205.01508729574238
200.9557460578895
198.79675596689637
197.70524759757814
197.17857612236202
196.93508352380906
196.8268238011435
196.78037890532391
196.76109671862073
196.75333715861166
196.7503448917961
196.7493799056288
196.74964286363897
196.75179517585923
196.7590406024676
196.7809122917767
196.84286678790136
197.00761817159625
197.41700975310818
198.36306310883916
200.38727494813975
204.38360724247255
211.6495963076648
223.82291534758212
242.9841467605594
311.03614320356564
264.03333894282144
228.96105156999127
204.34711262117625
188.1539878377451
178.14836310465927
172.3259453795367
169.1241697082028
167.4540097324962
166.62429605845756
166.2301981625114
166.05055027425806
165.97168328782016
165.93823272474884
165.92449040275372
165.91903146026624
165.91700807327018
165.91658938123624
165.91760837350253
165.92175123959922
165.93474302425406
165.97253451278414
166.07586804603932
166.3406406581211
166.97346839282585
168.3779605352648
171.26120907381113
176.72045596083478
186.2407594573912
201.54635639323118
223.82293432904652
271.84742134673894
228.96103457257468
197.51238813929606
175.8095931653522
161.720275368274
153.10543556344564
148.13248968819804
145.41395689489917
144.001679999976
143.30192356508408
142.97003855733274
142.8188368881389
142.7524533109555
142.7242844901737
142.71271085365532
142.70813579293022
142.7065382459103
142.7065616403752
142.7086270723885
142.71578382590877
142.73725419404295
142.7975100688999
142.9563514580026
143.34820847111644
144.24894089444183
146.17030989152877
149.96093989414496
156.86068899070406
168.43013845592378
186.24074987109023
211.64960464240144
243.51953641130316
204.34709116206125
175.80959674701666
156.19804965357685
143.48885648963264
135.71578804561167
131.22058451942712
128.7561292526074
127.47129345495509
126.83219373824927
126.52785523226332
126.38865392156067
126.32730691090127
126.30118479832338
126.29042984872814
126.2862093858414
126.28488039057592
126.28543154784813
126.28898875130278
126.30038623017167
126.33327510638331
126.42229297931144
126.64843000255934
127.18565910398905
128.3745801055512
130.81713627835492
135.46255370421122
143.62520436859114
156.86070238224934
176.72046843382353
204.3835989644982
224.37276928740846
188.15397203090475
161.72026896286417
143.48890302457357
131.6180854558531
124.31916417095283
120.0751041493175
117.73599292065633
116.51046673256954
115.89811756700314
115.60534251318265
115.47095468010947
115.41154640723146
115.38618733946277
115.37573972593567
115.3716951836576
115.37063001458887
115.37188427890572
115.37744673307864
115.39431521876962
115.44121031609536
115.56362312837518
115.8634813149966
116.55050349609631
118.0179673502865
120.93196868964874
126.30000900456947
135.4625480357987
149.9609361165159
171.26120668217592
200.38728127258304
212.24103238036673
178.14838854372096
153.10546921020818
135.7157625205959
124.31915476945358
117.27025275904964
113.15032122378547
110.86957038775375
109.67017843057148
109.06903280541546
108.7808820700481
108.64833844793367
108.58964587477091
108.56456476232259
108.55424676623758
108.55033732940733
108.54959028601132
108.5517466030016
108.55979404064567
108.58311099383864
108.64563570906219
108.8032129283887
109.17610546776652
110.00240476353316
111.71250893615662
115.01104201530745
120.93196685891483
130.81713735805678
146.17031666498815
168.37794105728125
198.36305542394194
205.0150913096453
172.32596210838332
148.13252641923773
131.2205545141614
120.07509378867724
113.1503191173225
109.08839743705094
106.8334454772858
105.64501951055206
105.04835589149337
104.76197517064456
104.63011023486484
104.5716743983611
104.54669759098024
104.53645402799893
104.53268633808224
104.53232807068134
104.53556035766657
104.54643138081164
104.5766874397309
104.6550825049194
104.84626398452926
105.28469592760902
106.22817639157725
108.12959124516871
111.71250664795318
118.01796204700611
128.3745719604308
144.24893811805595
166.97346581530013
197.417018843014
200.95575843537978
169.12419179193253
145.41390848034246
128.75610420034621
117.73599045192537
110.86957634537872
106.83344424206541
104.58937375271407
103.40535150865033
102.81041126304137
102.52468229257417
102.39305927968837
102.3347151170475
102.30978588848949
102.29960627612776
102.29600005463783
102.29608823463833
102.30050204576169
102.31431049696832
102.35138151068216
102.4444520464487
102.66482738031432
103.15667206127902
104.18968016834708
106.22817538436266
110.00240347469003
116.55050426195207
127.18565986544456
143.34819570540944
166.34062217547543
197.00760848860688
198.79676059475835
167.4540397382854
144.0016362408532
127.4712769680502
116.51046752096354
109.67017300033899
105.64501874218084
103.40535448162682
102.22303624705141
101.6287345665107
101.34323829333577
101.21169999363998
101.15339105627893
101.12849269835618
101.11837910187428
101.11495148000982
101.11551440038382
101.12111984131498
101.13772656309929
101.18091195369172
101.28635860342871
101.52984167444625
102.0613354424576
103.15667293825804
105.28469583869435
109.17610463608894
115.86348024529939
126.64842631517949
142.95635492316453
166.07587408981323
196.84288520059263
197.70527849221213
166.62423290123337
143.30190299128074
126.83219138696097
115.8981278028654
109.06903229470554
105.04835892358194
102.81041090782462
101.62873421084662
101.03466118064566
100.74924701063146
100.61773907270525
100.55944771585534
100.53457680905042
100.524532644933
100.52128920917363
100.5223174362063
100.5290263884711
100.54807507205949
100.59627881715896
100.71126426030021
100.971457365081
101.52984114018581
102.66482712577744
104.84626393965564
108.80321273102365
115.56362331271069
126.42227898457617
142.797496688986
165.97251833453402
196.78090329291308
197.17863254664948
166.23015013470734
142.97002893753987
126.5278601141814
115.6053362392616
108.78088337850264
104.76197952112952
102.52468236819965
101.34323892200435
100.74924698225176
100.46386188644611
100.33236676503586
100.2740885071718
100.24924501675827
100.23927084262183
100.23620355860793
100.23765196213445
100.24530006405784
100.2663038926094
100.31828247420151
100.44000297148038
100.7112646492054
101.2863587762474
102.4444515173542
104.65508156946332
108.64563473233699
115.44120782956186
126.33327374222495
142.7372587157127
165.93475137700798
196.7590273779758
196.93502644587028
166.05052077860236
142.81883664789063
126.38866553537783
115.4709493712948
108.6483410318807
104.63010817263147
102.39305967729301
101.21169889036477
100.61773909005841
100.3323670053748
100.20088106684378
100.14261614678168
100.11780082345292
100.10789336077255
100.10498252861213
100.10678108443143
100.11516470126315
100.13760725638966
100.19219423259149
100.31828274109185
100.5962790413623
101.1809117309081
102.35138251853922
104.57668923905187
108.58311502789589
115.39431177484
126.3003815090324
142.71578475182326
165.92175258898823
196.75180900151418
196.826799522013
165.9716810791268
142.75247084871398
126.32729783105728
115.41154833441269
108.58965380881654
104.57167392365045
102.33471693441516
101.15339047320806
100.55944800509718
100.27408836585944
100.14261607266738
100.08436898731722
100.05958423246331
100.04973834275079
100.04695792254739
100.04902704880838
100.05794235654764
100.08136036045885
100.1376070917677
100.26630383194241
100.54807539064676
101.13772572684996
102.31431014363159
104.54643063715149
108.5597925763366
115.37744548667771
126.2889874122133
142.70863292075526
165.9175862191426
196.7496461742883
196.7803595657457
165.938233447509
142.72430644530337
126.30117578920267
115.38619003533731
108.56456043682724
104.54669774140652
102.30978459062231
101.1284923434215
100.53457727121825
100.24924482795554
100.11780080422649
100.05958421683343
100.03483782223942
100.02505075725696
100.02237544107828
100.02464075687976
100.03391276349227
100.05794233418212
100.1151647430938
100.24530002710428
100.5290265832675
101.12111976619657
102.30050303651272
104.53556239234659
108.55174460396358
115.3718812879258
126.28542756412692
142.7065623972989
165.91659307747483
196.74937945248584
196.7610970337157
165.9245095051724
142.71269916262463
126.29043021374692
115.37575071436203
108.55424551928358
104.53645727452478
102.29960589492032
101.11837906410942
100.52453254788674
100.23927082834082
100.10789341254393
100.04973832741919
100.02505076993837
100.0153284435749
100.01274080003934
100.0151437821425
100.02464074498641
100.04902701265394
100.10678102382118
100.23765197447503
100.52231729720751
101.11551363082067
102.29608788285788
104.53232717489678
108.5495896679049
115.37062941883737
126.28488007843987
142.7065244191491
165.91700450799587
196.75033716919836
196.75333745431743
165.91905252783076
142.7081238887221
126.28621140963718
115.37168723170416
108.55033696041961
104.532683594357
102.29600012615457
101.1149518683312
100.52128908229065
100.23620358123067
100.10498240118771
100.0469579244727
100.02237542062497
100.0127408000529
100.01023760580486
100.0127408048322
100.02237542792318
100.04695796396335
100.10498245782192
100.2362035047459
100.52128943736544
101.1149514610933
102.29600118897308
104.53268517308224
108.55033556679915
115.37169348165138
126.28620573250534
142.70814024816525
165.91902246611716
196.75333981939565
196.75036488264752
165.91698480054106
142.70654371730382
126.28489550335699
115.37062729870485
108.54959525327259
104.53232725407274
102.29608912116498
101.11551362462797
100.52231765801449
100.23765219240784
100.1067810158128
100.04902709689033
100.0246407498376
100.01514378670532
100.01274080860904
100.01532845152171
100.02505074492935
100.04973834083944
100.10789332018925
100.23927066085162
100.52453253564688
101.11837839225129
102.29960576755884
104.53645388502895
108.55424656273175
115.37574012189707
126.29041562858089
142.71270832068515
165.92447497449413
196.761088574068
196.74941090084997
165.91657179803298
142.70657084103544
126.28541739445858
115.37188327847889
108.55174152544055
104.53556028252075
102.30050373483537
101.121119019563
100.52902673376484
100.24529990042548
100.11516465489048
100.05794231671173
100.03391275169815
100.02464076544787
100.02237544445144
100.02505076013573
100.03483783878346
100.05958423989624
100.11780076428302
100.2492449843117
100.5345770395899
101.12849283345297
102.30978530414161
104.54669669135168
108.56456355549075
115.38618493558886
126.30118380506146
142.72427691646553
165.9382242217476
196.78037986996137
196.74961066449623
165.91759862887804
142.70864265793253
126.28897506536103
115.37744859367369
108.5597890977802
104.54643090543512
102.31430904021353
101.13772591853642
100.54807558350272
100.26630368580338
100.13760721799792
100.08136033848672
100.05794234365743
100.04902704693839
100.04695792085963
100.0497383350642
100.05958424740193
100.08436896403741
100.14261604478465
100.27408846341247
100.55944789894451
101.1533908578723
102.33471593126403
104.57167604608848
108.58964976780264
115.41154262225422
126.32730891588332
142.75245291779694
165.97168307184387
196.82683347484482
196.75178822132577
165.92176330998547
142.7157681907583
126.3003836929975
115.39430612753596
108.58311117233485
104.57669044629623
102.35138109099877
101.18091204520496
100.59627878891911
100.31828256026077
100.19219419428305
100.13760722674928
100.11516472441237
100.10678109541446
100.10498253024348
100.107893366645
100.117800831415
100.14261612504315
100.20088113184924
100.33236687902003
100.61773929581028
101.21169915218043
102.393058900973
104.63010946757227
108.64833706537308
115.47095333109851
126.38864359486031
142.8188295933566
166.05054085774856
196.93508392039328
196.75903613618758
165.9347602671476
142.737238727905
126.33327755662432
115.44120183694231
108.64563519618714
104.65507954776888
102.44445192961552
101.28635918795602
100.7112643602916
100.44000325119823
100.31828244543848
100.26630386836567
100.24530005597171
100.23765194754014
100.23620356053866
100.2392708625531
100.24924500034302
100.27408850079475
100.33236680497232
100.46386181667563
100.74924713203539
101.34323830407534
102.52468335148177
104.76197689341858
108.78087971242522
115.60534354850456
126.52785021265636
142.97003817279955
166.2301981804735
197.17857291030913
196.780907920088
165.97249120417789
142.79749893046233
126.42226996560181
115.56361710385636
108.80321490274098
104.84626146925946
102.66482778296366
101.52984068890191
100.97145702589201
100.71126418212943
100.59627874332277
100.54807512688502
100.52902644065318
100.52231744420477
100.52128921001307
100.52453264418757
100.53457679410225
100.5594477440522
100.61773901243404
100.7492471125984
101.03466126670145
101.62873377480645
102.81041157478799
105.04835677691175
109.06903552287223
115.898115870562
126.83219265142594
143.30193137532464
166.62430682124054
197.70526456292936
196.8429120653292
166.07586424761595
142.95637365081868
126.6484265223342
115.86348744351238
109.17610531399214
105.28469938713816
103.15667567501161
102.06133637879452
101.5298435055136
101.28635975829222
101.18091302746468
101.13772762989812
101.12112086643545
101.11551549578094
101.11495261886097
101.11838015053908
101.12849379802887
101.15339214251514
101.21170097734446
101.34323933266852
101.62873509185556
102.22303735717865
103.40535326013415
105.64501651817679
109.67017675530194
116.51046040439778
127.47128304924931
144.00167185153342
167.45398256506817
198.79673847399084
197.00760120639717
166.34064590816655
143.3481969590025
127.18566059056818
116.55051479409147
110.00240434057781
106.22818019194571
104.18968226511886
103.15667392701516
102.66482948543408
102.44445403499236
102.35138376898713
102.314312812559
102.30050420299364
102.29609035032217
102.2960021542364
102.29960837497958
102.30978801669293
102.33471720077111
102.39306146159709
102.52468431246193
102.81041297661308
103.40535361043248
104.58937403686376
106.83344726512753
110.86956969645843
117.73599135070097
128.75612218282396
145.41395462387982
169.12416317364432
200.95574330392427
197.41700265743577
166.97348435368133
144.24893344183968
128.37457966180915
118.0179610421287
111.7125113925454
108.1295953485196
106.22817769647652
105.28469906221497
104.84626611982807
104.65508443901948
104.5766893284546
104.54643313551854
104.53556233906124
104.53233018582615
104.53268821158225
104.53645608331196
104.54669958595846
104.57167629921379
104.63011223853862
104.76197698502676
105.0483580824287
105.64502066271561
106.83344679077983
109.08840278363952
113.15031906132926
120.0751034070592
131.2205848765034
148.13248616978146
172.3259420803624
205.01509334897437
198.36306300122078
168.37792580596678
146.1703053611899
130.8171437664839
120.9319615820923
115.0110444278423
111.71250804519491
110.00240399068717
109.17610526786214
108.80321256692856
108.64563601234934
108.58311158005282
108.55979422850004
108.55174666604901
108.54959028959104
108.55033739112402
108.55424686729576
108.56456487592675
108.58964619114424
108.64833848465874
108.7808821865488
109.0690333215871
109.67017824058148
110.86957228083561
113.15031844476135
117.2702557164204
124.31916997107479
135.71579706213203
153.10544688560088
178.14836976296314
212.24103547817546
200.38728009159772
171.2611818583077
149.96093183046347
135.46253402755522
126.30000521506348
120.93196516619545
118.0179600579554
116.55049949109535
115.86347611410773
115.56361753708991
115.44120458422218
115.39430912790625
115.37744118913223
115.37187904225875
115.37062425880913
115.37168985596168
115.37573423828054
115.38618169829236
115.4115409249797
115.47094919023152
115.60533721643644
115.89811173721712
116.51046179133552
117.735990334205
120.07509865721822
124.3191653217723
131.61809999063897
143.48886519465546
161.72024134965696
188.15395500879725
224.37277302769562
204.3836094586854
176.72048037221984
156.86073433364948
143.625218475741
135.4625764088893
130.81715331796124
128.3745967113564
127.18567611169692
126.64844650385676
126.4223106622409
126.33329338516141
126.30040373501392
126.28900596835905
126.28544861139966
126.28489767142294
126.28622668255572
126.29044719656758
126.3012024882274
126.3273240100691
126.38867128060622
126.5278727783406
126.83221060608396
127.47131100433191
128.7561434754692
131.22060099831842
135.71580987689669
143.4888863798875
156.19802967365374
175.80956758324186
204.34706474463064
243.5195416936988
211.64961424462084
186.24078155379405
168.43015359922256
156.86071410824707
149.96096364096093
146.17032753385578
144.24896247641803
143.3482284893785
142.956370817332
142.7975291116438
142.73727244807714
142.71580299036552
142.7086467556547
142.70658054962354
142.7065578788837
142.7081551206183
142.71272993395218
142.72430370994294
142.75247262218372
142.81885613947995
142.97005718064005
143.3019432193272
144.00170016654886
145.41397384426233
148.13250923337657
153.10545999710646
161.72025538659506
175.8095713781056
197.5123600036494
228.96100789884127
271.8474237510686
223.82293657973165
201.54637980854054
186.24076257992073
176.72046967275543
171.26121658128264
168.3779678041983
166.97347625832353
166.3406479594854
166.07587729849135
165.9725444470445
165.93475173313996
165.9217595868603
165.91761649355058
165.91659803863476
165.91701662492133
165.91904009941058
165.9244994791983
165.93824091853955
165.97169200896855
166.05055910054833
166.23020649261005
166.62430464956878
167.45401642879574
169.12417814495618
172.32595684555073
178.1483791530557
188.1539619942562
204.3470740066531
228.96100278041263
264.0332908607434
311.036056104824
242.98416309508875
223.82291006749725
211.64960198927554
204.3836119937104
200.38727254846586
198.36306546447483
197.4170100430516
197.0076191223205
196.8428673314805
196.7809105961878
196.75904047458388
196.75179543237306
196.7496428824395
196.74938046524926
196.75034507067943
196.75333734814285
196.76109622425616
196.7803793779234
196.82682380887414
196.9350829548488
197.17857667709845
197.70524862468488
198.79675510766901
200.95574633275177
205.01508878863436
212.24103100657834
224.37277015770982
243.5195348806557
271.84740162919
311.0360382222417
360.7225142656447
