# vtk DataFile Version 2.0
Unstructured Grid Example
ASCII
DATASET UNSTRUCTURED_GRID

POINTS 961 float
0.150000006 -0.00839745998 0
0.146666661 -0.00839745998 0
0.143333331 -0.00839745998 0
0.140000001 -0.00839745998 0
0.13666667 -0.00839745998 0
0.13333334 -0.00839745998 0
0.129999995 -0.00839745998 0
0.126666665 -0.00839745998 0
0.123333335 -0.00839745998 0
0.119999997 -0.00839745998 0
0.116666667 -0.00839745998 0
0.113333337 -0.00839745998 0
0.109999999 -0.00839745998 0
0.106666669 -0.00839745998 0
0.103333332 -0.00839745998 0
0.100000001 -0.00839745998 0
0.0966666639 -0.00839745998 0
0.0933333337 -0.00839745998 0
0.0900000036 -0.00839745998 0
0.086666666 -0.00839745998 0
0.0833333358 -0.00839745998 0
0.0799999982 -0.00839745998 0
0.0766666681 -0.00839745998 0
0.0733333305 -0.00839745998 0
0.0700000003 -0.00839745998 0
0.0666666701 -0.00839745998 0
0.0633333325 -0.00839745998 0
0.0599999987 -0.00839745998 0
0.0566666685 -0.00839745998 0
0.0533333346 -0.00839745998 0
0.0500000007 -0.00839745998 0
0.148333326 -0.0112842107 0
0.144999996 -0.0112842107 0
0.141666666 -0.0112842107 0
0.138333336 -0.0112842107 0
0.135000005 -0.0112842107 0
0.13166666 -0.0112842107 0
0.12833333 -0.0112842107 0
0.125 -0.0112842107 0
0.12166667 -0.0112842107 0
0.118333332 -0.0112842107 0
0.115000002 -0.0112842107 0
0.111666664 -0.0112842107 0
0.108333334 -0.0112842107 0
0.104999997 -0.0112842107 0
0.101666667 -0.0112842107 0
0.0983333364 -0.0112842107 0
0.0949999988 -0.0112842107 0
0.0916666687 -0.0112842107 0
0.088333331 -0.0112842107 0
0.0850000009 -0.0112842107 0
0.0816666633 -0.0112842107 0
0.0783333331 -0.0112842107 0
0.075000003 -0.0112842107 0
0.0716666654 -0.0112842107 0
0.0683333352 -0.0112842107 0
0.0649999976 -0.0112842107 0
0.0616666675 -0.0112842107 0
0.0583333336 -0.0112842107 0
0.0549999997 -0.0112842107 0
0.0516666658 -0.0112842107 0
0.0483333319 -0.0112842107 0
0.146666661 -0.0141709624 0
0.143333331 -0.0141709624 0
0.140000001 -0.0141709624 0
0.13666667 -0.0141709624 0
0.13333334 -0.0141709624 0
0.129999995 -0.0141709624 0
0.126666665 -0.0141709624 0
0.123333335 -0.0141709624 0
0.119999997 -0.0141709624 0
0.116666667 -0.0141709624 0
0.113333337 -0.0141709624 0
0.109999999 -0.0141709624 0
0.106666669 -0.0141709624 0
0.103333332 -0.0141709624 0
0.100000001 -0.0141709624 0
0.0966666639 -0.0141709624 0
0.0933333337 -0.0141709624 0
0.0900000036 -0.0141709624 0
0.086666666 -0.0141709624 0
0.0833333358 -0.0141709624 0
0.0799999982 -0.0141709624 0
0.0766666681 -0.0141709624 0
0.0733333305 -0.0141709624 0
0.0700000003 -0.0141709624 0
0.0666666701 -0.0141709624 0
0.0633333325 -0.0141709624 0
0.0599999987 -0.0141709624 0
0.0566666685 -0.0141709624 0
0.0533333346 -0.0141709624 0
0.0500000007 -0.0141709624 0
0.0466666669 -0.0141709624 0
0.144999996 -0.0170577131 0
0.141666666 -0.0170577131 0
0.138333336 -0.0170577131 0
0.135000005 -0.0170577131 0
0.13166666 -0.0170577131 0
0.12833333 -0.0170577131 0
0.125 -0.0170577131 0
0.12166667 -0.0170577131 0
0.118333332 -0.0170577131 0
0.115000002 -0.0170577131 0
0.111666664 -0.0170577131 0
0.108333334 -0.0170577131 0
0.104999997 -0.0170577131 0
0.101666667 -0.0170577131 0
0.0983333364 -0.0170577131 0
0.0949999988 -0.0170577131 0
0.0916666687 -0.0170577131 0
0.088333331 -0.0170577131 0
0.0850000009 -0.0170577131 0
0.0816666633 -0.0170577131 0
0.0783333331 -0.0170577131 0
0.075000003 -0.0170577131 0
0.0716666654 -0.0170577131 0
0.0683333352 -0.0170577131 0
0.0649999976 -0.0170577131 0
0.0616666675 -0.0170577131 0
0.0583333336 -0.0170577131 0
0.0549999997 -0.0170577131 0
0.0516666658 -0.0170577131 0
0.0483333319 -0.0170577131 0
0.0450000018 -0.0170577131 0
0.143333331 -0.0199444648 0
0.140000001 -0.0199444648 0
0.13666667 -0.0199444648 0
0.13333334 -0.0199444648 0
0.129999995 -0.0199444648 0
0.126666665 -0.0199444648 0
0.123333335 -0.0199444648 0
0.119999997 -0.0199444648 0
0.116666667 -0.0199444648 0
0.113333337 -0.0199444648 0
0.109999999 -0.0199444648 0
0.106666669 -0.0199444648 0
0.103333332 -0.0199444648 0
0.100000001 -0.0199444648 0
0.0966666639 -0.0199444648 0
0.0933333337 -0.0199444648 0
0.0900000036 -0.0199444648 0
0.086666666 -0.0199444648 0
0.0833333358 -0.0199444648 0
0.0799999982 -0.0199444648 0
0.0766666681 -0.0199444648 0
0.0733333305 -0.0199444648 0
0.0700000003 -0.0199444648 0
0.0666666701 -0.0199444648 0
0.0633333325 -0.0199444648 0
0.0599999987 -0.0199444648 0
0.0566666685 -0.0199444648 0
0.0533333346 -0.0199444648 0
0.0500000007 -0.0199444648 0
0.0466666669 -0.0199444648 0
0.043333333 -0.0199444648 0
0.141666666 -0.0228312165 0
0.138333336 -0.0228312165 0
0.135000005 -0.0228312165 0
0.13166666 -0.0228312165 0
0.12833333 -0.0228312165 0
0.125 -0.0228312165 0
0.12166667 -0.0228312165 0
0.118333332 -0.0228312165 0
0.115000002 -0.0228312165 0
0.111666664 -0.0228312165 0
0.108333334 -0.0228312165 0
0.104999997 -0.0228312165 0
0.101666667 -0.0228312165 0
0.0983333364 -0.0228312165 0
0.0949999988 -0.0228312165 0
0.0916666687 -0.0228312165 0
0.088333331 -0.0228312165 0
0.0850000009 -0.0228312165 0
0.0816666633 -0.0228312165 0
0.0783333331 -0.0228312165 0
0.075000003 -0.0228312165 0
0.0716666654 -0.0228312165 0
0.0683333352 -0.0228312165 0
0.0649999976 -0.0228312165 0
0.0616666675 -0.0228312165 0
0.0583333336 -0.0228312165 0
0.0549999997 -0.0228312165 0
0.0516666658 -0.0228312165 0
0.0483333319 -0.0228312165 0
0.0450000018 -0.0228312165 0
0.0416666679 -0.0228312165 0
0.140000001 -0.0257179681 0
0.13666667 -0.0257179681 0
0.13333334 -0.0257179681 0
0.129999995 -0.0257179681 0
0.126666665 -0.0257179681 0
0.123333335 -0.0257179681 0
0.119999997 -0.0257179681 0
0.116666667 -0.0257179681 0
0.113333337 -0.0257179681 0
0.109999999 -0.0257179681 0
0.106666669 -0.0257179681 0
0.103333332 -0.0257179681 0
0.100000001 -0.0257179681 0
0.0966666639 -0.0257179681 0
0.0933333337 -0.0257179681 0
0.0900000036 -0.0257179681 0
0.086666666 -0.0257179681 0
0.0833333358 -0.0257179681 0
0.0799999982 -0.0257179681 0
0.0766666681 -0.0257179681 0
0.0733333305 -0.0257179681 0
0.0700000003 -0.0257179681 0
0.0666666701 -0.0257179681 0
0.0633333325 -0.0257179681 0
0.0599999987 -0.0257179681 0
0.0566666685 -0.0257179681 0
0.0533333346 -0.0257179681 0
0.0500000007 -0.0257179681 0
0.0466666669 -0.0257179681 0
0.043333333 -0.0257179681 0
0.0399999991 -0.0257179681 0
0.138333336 -0.0286047198 0
0.135000005 -0.0286047198 0
0.13166666 -0.0286047198 0
0.12833333 -0.0286047198 0
0.125 -0.0286047198 0
0.12166667 -0.0286047198 0
0.118333332 -0.0286047198 0
0.115000002 -0.0286047198 0
0.111666664 -0.0286047198 0
0.108333334 -0.0286047198 0
0.104999997 -0.0286047198 0
0.101666667 -0.0286047198 0
0.0983333364 -0.0286047198 0
0.0949999988 -0.0286047198 0
0.0916666687 -0.0286047198 0
0.088333331 -0.0286047198 0
0.0850000009 -0.0286047198 0
0.0816666633 -0.0286047198 0
0.0783333331 -0.0286047198 0
0.075000003 -0.0286047198 0
0.0716666654 -0.0286047198 0
0.0683333352 -0.0286047198 0
0.0649999976 -0.0286047198 0
0.0616666675 -0.0286047198 0
0.0583333336 -0.0286047198 0
0.0549999997 -0.0286047198 0
0.0516666658 -0.0286047198 0
0.0483333319 -0.0286047198 0
0.0450000018 -0.0286047198 0
0.0416666679 -0.0286047198 0
0.038333334 -0.0286047198 0
0.13666667 -0.0314914696 0
0.13333334 -0.0314914696 0
0.129999995 -0.0314914696 0
0.126666665 -0.0314914696 0
0.123333335 -0.0314914696 0
0.119999997 -0.0314914696 0
0.116666667 -0.0314914696 0
0.113333337 -0.0314914696 0
0.109999999 -0.0314914696 0
0.106666669 -0.0314914696 0
0.103333332 -0.0314914696 0
0.100000001 -0.0314914696 0
0.0966666639 -0.0314914696 0
0.0933333337 -0.0314914696 0
0.0900000036 -0.0314914696 0
0.086666666 -0.0314914696 0
0.0833333358 -0.0314914696 0
0.0799999982 -0.0314914696 0
0.0766666681 -0.0314914696 0
0.0733333305 -0.0314914696 0
0.0700000003 -0.0314914696 0
0.0666666701 -0.0314914696 0
0.0633333325 -0.0314914696 0
0.0599999987 -0.0314914696 0
0.0566666685 -0.0314914696 0
0.0533333346 -0.0314914696 0
0.0500000007 -0.0314914696 0
0.0466666669 -0.0314914696 0
0.043333333 -0.0314914696 0
0.0399999991 -0.0314914696 0
0.0366666652 -0.0314914696 0
0.135000005 -0.0343782231 0
0.13166666 -0.0343782231 0
0.12833333 -0.0343782231 0
0.125 -0.0343782231 0
0.12166667 -0.0343782231 0
0.118333332 -0.0343782231 0
0.115000002 -0.0343782231 0
0.111666664 -0.0343782231 0
0.108333334 -0.0343782231 0
0.104999997 -0.0343782231 0
0.101666667 -0.0343782231 0
0.0983333364 -0.0343782231 0
0.0949999988 -0.0343782231 0
0.0916666687 -0.0343782231 0
0.088333331 -0.0343782231 0
0.0850000009 -0.0343782231 0
0.0816666633 -0.0343782231 0
0.0783333331 -0.0343782231 0
0.075000003 -0.0343782231 0
0.0716666654 -0.0343782231 0
0.0683333352 -0.0343782231 0
0.0649999976 -0.0343782231 0
0.0616666675 -0.0343782231 0
0.0583333336 -0.0343782231 0
0.0549999997 -0.0343782231 0
0.0516666658 -0.0343782231 0
0.0483333319 -0.0343782231 0
0.0450000018 -0.0343782231 0
0.0416666679 -0.0343782231 0
0.038333334 -0.0343782231 0
0.0350000001 -0.0343782231 0
0.13333334 -0.0372649729 0
0.129999995 -0.0372649729 0
0.126666665 -0.0372649729 0
0.123333335 -0.0372649729 0
0.119999997 -0.0372649729 0
0.116666667 -0.0372649729 0
0.113333337 -0.0372649729 0
0.109999999 -0.0372649729 0
0.106666669 -0.0372649729 0
0.103333332 -0.0372649729 0
0.100000001 -0.0372649729 0
0.0966666639 -0.0372649729 0
0.0933333337 -0.0372649729 0
0.0900000036 -0.0372649729 0
0.086666666 -0.0372649729 0
0.0833333358 -0.0372649729 0
0.0799999982 -0.0372649729 0
0.0766666681 -0.0372649729 0
0.0733333305 -0.0372649729 0
0.0700000003 -0.0372649729 0
0.0666666701 -0.0372649729 0
0.0633333325 -0.0372649729 0
0.0599999987 -0.0372649729 0
0.0566666685 -0.0372649729 0
0.0533333346 -0.0372649729 0
0.0500000007 -0.0372649729 0
0.0466666669 -0.0372649729 0
0.043333333 -0.0372649729 0
0.0399999991 -0.0372649729 0
0.0366666652 -0.0372649729 0
0.0333333351 -0.0372649729 0
0.13166666 -0.0401517227 0
0.12833333 -0.0401517227 0
0.125 -0.0401517227 0
0.12166667 -0.0401517227 0
0.118333332 -0.0401517227 0
0.115000002 -0.0401517227 0
0.111666664 -0.0401517227 0
[...]
POINT_DATA 961
SCALARS Temp float 1
LOOKUP_TABLE default
422.73414790414444
374.63193535072776
333.9158006174817
301.3410801969837
276.3643710070016
257.9959830753761
245.03365203434808
236.2511618442811
230.5332710553732
226.95239486872924
224.79261394430193
223.53631321118505
222.83053371664872
222.44706449148188
222.24541196895166
222.14307031243638
222.09407531395627
222.075069633139
222.07765695998958
222.10615070016
222.18071280666524
222.3467586744822
222.6921222581757
223.37313352306586
224.6487081332392
226.91766951274437
230.74908844515676
236.89127785164902
246.24661770815695
259.81408370026253
278.8491588458844
374.6319499350382
328.0079594903257
290.00206056262465
260.188639758951
237.74617977792306
221.5318908521
210.2847392732522
202.78958296496197
197.9868157724619
195.0243634979528
193.26317532463986
192.2526243561006
191.69220055863167
191.39145570675632
191.23532567237777
191.15755655135473
191.12233136483857
191.1130230338135
191.12691093680814
191.17535979639936
191.2898703383552
191.53525495995794
192.0314228382537
192.9841563682391
194.72230789443913
197.73396485066755
202.68865610439585
210.4301097527623
221.92749646756502
238.19190210795887
259.8141033724307
333.9157546224051
290.0020392435657
254.6993161025344
227.39286861027057
207.0897959581799
192.58210921872103
182.61710261843865
176.0336333787214
171.8467736141058
169.2809603079117
167.76396486445256
166.89755113260557
166.41893011564724
166.1629971908971
166.03078869386334
165.96592524092722
165.93878735630486
165.93736930121267
165.9639490184953
166.03746075797983
166.20232530455857
166.5451367008758
167.2203365475004
168.48414142497086
170.73220243536863
174.53104857957726
180.62843060979083
189.92605514650617
203.4005516033494
221.92748712455088
246.246628038622
301.34102300421534
260.1886090127764
227.39286918055592
202.2178269962441
183.61448464753613
170.3840268252956
161.3270911393493
155.35684199401527
151.56454432073375
149.24132639514895
147.86725293144252
147.08175068195885
146.6472823443954
146.41472783460785
146.29480469229551
146.23696629867484
146.21550103580125
146.2219982693047
146.26365768712716
146.3676312869621
146.59237530182307
147.0473059676002
147.9212384990191
149.5175898135572
152.28993649826938
156.86608136951037
164.04488754033852
174.74965292084357
189.9260708743714
210.43012287393805
236.89126936562747
276.3643185405001
237.74615159150792
207.0897804789424
183.61455255590013
166.28622657428897
153.96144440154168
145.51557612185735
139.93807731695978
136.38693946972253
134.2055337322666
132.91154505940202
132.16960048261814
131.75805410070566
131.53733244956993
131.4237482830552
131.37020775673622
131.35369085397352
131.36896007651328
131.42824861111313
131.56732576577065
131.85895434067817
132.4347290336185
133.51498704145078
135.44351911752426
138.7191821319768
144.0116885079966
152.14628106871365
164.0448806902217
180.62842589344203
202.6886544565267
230.74909427453846
257.99593053540815
221.53192723968894
192.5821571995669
170.38399545411104
153.9614321446302
142.24688606024216
134.19271377132029
128.85533320731713
125.4451325607584
123.34312331629842
122.0921904079055
121.37279020144518
120.97274424119738
120.7579268371928
120.6478225741982
120.59747589892287
120.58595536374932
120.6110323546485
120.69000584919289
120.86717999994394
121.22889757104952
121.92668463698736
123.20743897724289
125.44637335598756
129.17397006336603
135.08439225848014
144.01168540277334
156.86608271325053
174.53105552448673
197.7339435555759
226.91766368182843
245.0336614956047
210.28476270310634
182.61714927302205
161.3270542858969
145.51556146604966
134.19270994399196
126.37826461714265
121.18134824571726
117.85009040187344
115.79075832361745
114.5620832632862
113.85394201046111
113.45952410216007
113.24771230856447
113.13980927139055
113.0923104879952
113.08607373511303
113.12174649734719
113.22149494282343
113.43753381777924
113.86816355654808
114.68143284739148
116.14473687698484
118.65540329157332
122.76336315656242
129.1739662738429
138.71917419716203
152.28992499946474
170.7322010219321
194.72230587646445
224.64871680577215
236.25117749685148
202.78961017942856
176.03357680707074
155.35680928798106
139.93807686377212
128.85534427168946
121.1813455433231
116.06320982514954
112.77442226948331
110.73717038098793
109.51959255403597
108.81691023950614
108.42523295536758
108.21508376290718
108.10886009235843
108.06415160399628
108.06341553516233
108.10996578712367
108.23036818807098
108.48366437228434
108.97790292479837
109.89373965844685
111.51298716522349
114.24687905091196
118.65540118493463
125.4463703233613
135.44352100656488
149.51759110624775
168.4841268224205
192.98413706550798
223.37312344828683
230.53327898459736
197.98684964877077
171.8467289410945
151.56452649489157
136.38694188080962
125.4451226264163
117.8500879189081
112.77442987191968
109.50765230133706
107.48141984264083
106.26920533701993
105.56912229889787
105.17882781411947
104.96975165464714
104.86500784367679
104.82307598470182
104.8278296432781
104.88493009184572
105.02466291567184
105.31154019318024
105.86095005402899
106.86236752552466
108.6067632797918
111.51298916546374
116.1447375633782
123.20743838600116
133.51498566154095
147.92123424768576
167.22034020838905
192.03142987466225
222.69214115255997
226.9524324639732
195.02429931175539
169.28093704949305
149.2413227061669
134.20554630878345
123.34312225704232
115.79076401914456
110.73716854990826
107.48141839003236
105.46051558944329
104.25084168560888
103.552011383726
103.16249448917546
102.95424443353954
102.85088895132104
102.81164843604985
102.82160365008681
102.88835766980554
103.04512618154776
103.3604839231521
103.95491010647861
105.02349611161644
106.862366068997
109.89373933074805
114.68143253617686
121.92668396185849
132.4347286052851
147.0472884873078
166.54512189790438
191.53523809644446
222.34675021405585
224.79267369366792
193.26312487244886
167.76395176456174
147.86725870103822
132.91153438153512
122.09219165987639
114.5620908994397
109.5195928957876
106.26920722615309
104.25084151774968
103.0423824228976
102.3442107435233
101.95522627525897
101.74770358724733
101.64566083144331
101.6089229853895
101.62354633463208
101.69863697142011
101.86955621595024
102.20766718256321
102.836684617754
103.95491176514818
105.86095051864628
108.97790159922148
113.86816144667829
121.22889629798996
131.85895141063997
146.59237345338497
166.20233057550936
191.28987884998122
222.18069955402396
223.53625259071848
192.25259119572257
166.8975487259062
147.0817631077614
132.16959134174726
121.37279443758149
113.85393740127152
108.81691116598181
105.56911892436607
103.55201134090102
102.34421201844422
101.64648783099119
101.25796974079597
101.05114496680982
100.95033039447442
100.91582346198561
100.93442196719444
101.01631759791164
101.19832989147031
101.55358636203727
102.20766844505066
103.36048483431703
105.31153954172541
108.48366724501483
113.43753786763719
120.86718687320264
131.56732081862728
146.36762530694955
166.03746205312464
191.17536171925576
222.10616468320913
222.83050464714023
191.69219416630528
166.4189472760107
146.64726857388902
131.7580561548774
120.97275683056371
113.45952310760343
108.42523705833467
105.17882623989296
103.16249564039398
101.95522555455723
101.25796931311599
100.86997658401069
100.66387969280353
100.56421674500483
100.53163681300391
100.55346689737343
100.6406312555009
100.83086814359984
101.19832886984422
101.86955588945787
103.04512746999816
105.02466044518053
108.23036726066857
113.2214933776194
120.69000350662422
131.4282468959034
146.26365609871863
165.96395577670668
191.12688818296152
222.07766081132758
222.44704100379974
191.39145394654145
166.16302018976046
146.41471555688238
131.53733644608266
120.75791892997532
113.24771289169526
108.21508053523979
104.96975063167888
102.9542461715403
101.74770271828234
101.0511449573963
100.6638795871147
100.45863251310328
100.36009698882451
100.32917277637884
100.35354535520746
100.44460513008136
100.64063109922482
101.01631787461716
101.69863686640421
102.88835847488535
104.88492986523377
108.10996824725441
113.12175071612747
120.61102896925114
131.36895577973704
146.22199326039285
165.93737066707925
191.1130268026615
222.07506881879885
222.24541050936722
191.23534453235212
166.0307746763893
146.29480536296356
131.42376416410795
120.64782086698966
113.13981572511385
108.10885940229706
104.86500779773445
102.85088858078282
101.64566082825324
100.9503307005578
100.56421663432282
100.36009711491322
100.26277656724561
100.2333333818259
100.25969585995104
100.35354525469234
100.55346663651208
100.93442161733255
101.6235463718194
102.82160308858603
104.82782730371805
108.06341467890081
113.0860721057212
120.58595432129403
131.35369001403956
146.21550068188424
165.93877118587525
191.12232750215824
222.0940669305922
222.14307079572637
191.15757874514907
165.965912700942
146.23696971474152
131.37019581561555
120.59747578172349
113.0923048268518
108.06415196934567
104.82307719180803
102.81164808062437
101.60892315349848
100.91582271549967
100.53163685611295
100.3291725943196
100.23333338582579
100.20534803581602
100.23333343579408
100.32917266796198
100.5316371204645
100.91582304855122
101.60892277342379
102.81164932230496
104.82307596475965
108.0641544348757
113.09230805589735
120.59747293686999
131.37020496122548
146.23696184917134
165.96592971303824
191.15754671638436
222.1430723028502
222.09409726811558
191.1223081407656
165.93879422767532
146.2155203776496
131.35368745526895
120.58596386093167
113.08607245244028
108.06341800727212
104.82782730897058
102.82160458004
101.6235474358165
100.9344216179435
100.55346728668742
100.3535453155922
100.25969591082821
100.23333347359016
100.26277664734609
100.36009689169207
100.56421674629446
100.95033018664219
101.6456600279256
102.85088860027548
104.86500566069665
108.10885902696982
113.13980886125042
120.64782223750724
131.4237487185237
146.29478623678
166.030785787907
191.2353090169346
222.2454039365618
222.0751013065949
191.11300552329075
165.93738030601432
146.2219799471497
131.36895913521604
120.61102369001274
113.12174667617724
108.1099699800384
104.88492776668473
102.88835907588694
101.69863627203654
101.01631740407099
100.64063095301758
100.4446050244107
100.35354544272438
100.32917279983714
100.36009701884964
100.45863265136603
100.66387975764694
101.05114471525714
101.74770340485718
102.95424531635994
104.96975203156637
108.21508233899495
113.2477105005835
120.7579245698695
131.5373292085525
146.41472597519717
166.16298880840702
191.3914470950956
222.44706571476152
222.07762402199836
191.12690067384307
165.96396632064994
146.26364086633725
131.42825141274307
120.6899978205491
113.221494272376
108.23036452036759
105.02466115609789
103.04512818074859
101.8695552238639
101.1983296123904
100.83086797780061
100.64063114395701
100.55346688079055
100.53163680430038
100.56421665508485
100.66387981132547
100.86997641729977
101.25796912291473
101.95522603808344
103.16249517323351
105.1788273926458
108.42523472761552
113.45952742931513
120.97275059775727
131.75804861419434
146.647285325153
166.41892958813082
191.69220076477353
222.8305442918588
222.10614334512317
191.17537267005517
166.03744310090642
146.36762888570001
131.56731276273132
120.86718073166128
113.43754033224984
108.48366396230526
105.31154051517217
103.36048386641636
102.20766766940669
101.55358610310473
101.19832968745037
101.01631780040462
100.93442199368245
100.91582346631199
100.95033045857751
101.05114504089762
101.25796958836601
101.64648819123445
102.34421144993338
103.55201210691504
105.56911986120467
108.81690932866641
113.85394077429879
121.3727886349945
132.16959837557914
147.08173815867218
166.89754381804877
192.2526160607082
223.5363137516983
222.18070897749033
191.28988854936443
166.2023091230822
146.59237860760305
131.85894314345998
121.22889755222407
113.86815730125092
108.97790275468391
105.86095169888337
103.95491070136897
102.83668590295777
102.20766694810723
101.86955603562058
101.69863691734356
101.6235462617876
101.60892298128368
101.64566092598142
101.74770347802894
101.95522618421968
102.34421099533988
103.04238209305004
104.25084214420147
106.26920561738719
109.51959560934276
114.56208643599665
122.09218643190435
132.91154738165048
147.86724756142638
167.76396387706095
193.2631752340582
224.79261055966046
222.34675643573905
191.5352109842772
166.54512566230895
147.04727736979459
132.43472011897995
121.92668756363604
114.68142782357985
109.8937409246986
106.86236463988453
105.02349494090673
103.95490969396981
103.36048356288747
103.04512656021369
102.88835775628029
102.82160365141385
102.81164846138161
102.8508889673138
102.95424434548907
103.16249467985293
103.55201104567281
104.25084215514016
105.46051609974153
107.48141724180452
110.73717084707324
115.79076036629526
123.34312831977856
134.2055299739889
149.24132424487044
169.2809683104337
195.02437470301524
226.95241123750222
222.692169388645
192.0314215894004
167.2203622580468
147.92123580219393
133.51499745305497
123.20744034304772
116.14474560338202
111.51299614724164
108.60676604894634
106.86237349921316
105.86095339220863
105.31154338892722
105.0246661786639
104.88493323047108
104.82783300805396
104.82307938837836
104.86501099766174
104.96975486260213
105.17883107710962
105.56912505523522
106.26920843647801
107.48142121226627
109.5076558445347
112.77442792368774
117.85008464426026
125.4451311323539
136.38693207957044
151.56453427392057
171.84676824928306
197.9867862359676
230.53325283063148
223.37311686121555
192.98416302032788
168.48412950810328
149.51759379151545
135.4435371865347
125.44637318345964
118.6554113896132
114.24688385366203
111.51299163769164
109.89374475024779
108.97790779513363
108.48367034143686
108.23037369290431
108.1099710498927
108.0634207551297
108.06415676430144
108.1088652206118
108.21508899349263
108.42523782753352
108.81691551128925
109.51959749325155
110.73717406346985
112.7744276260757
116.06321057147001
121.18135208237888
128.85533362873832
139.938078031203
155.356831742769
176.03363051713208
202.7895761304307
236.25116125138052
224.6487019502715
194.72232539245772
170.73219692044006
152.28993578247844
138.71917329048617
129.17397473695272
122.76337100261095
118.65540565898648
116.14474425398983
114.68143670151944
113.86816723685394
113.437537602128
113.22149850794075
113.12175056051203
113.0860778720146
113.0923142893401
113.13981329796464
113.24771630752853
113.45952781171712
113.8539460531919
114.56208646787202
115.79076309896054
117.8500920075743
121.18134983823329
126.37827497045706
134.19270809148045
145.51557353370887
161.32709085616648
182.61709853565438
210.28473769814727
245.0336634313016
226.91767182625856
197.7339281891397
174.5310434630857
156.86609027902992
144.01167821175366
135.0843961704446
129.1739678725372
125.44637143511548
123.20743824408358
121.92668379786649
121.22889857144037
120.86718053382253
120.69000599911897
120.61103241490405
120.58595533193542
120.59747597457357
120.6478227211374
120.75792687057307
120.9727447296467
121.3727904311003
122.09219030205425
123.34312469997754
125.44513153392172
128.85533688390723
134.19270631322738
142.24688812920792
153.9614509960569
170.38403828081852
192.58212406964563
221.53190164485946
257.9959316459766
230.7490916789786
202.68862837228733
180.62842027853063
164.04486247826398
152.14627596082923
144.01168363906848
138.71917078354178
135.44351482985107
133.51497852306036
132.43472036320944
131.8589458191721
131.5673168915751
131.428240567445
131.36895217797746
131.35368247969765
131.37019979858442
131.42374021041522
131.53732418017236
131.75804616764447
132.1695922681983
132.91153798572861
134.2055248661996
136.3869314401049
139.93807559546448
145.51556585097785
153.96144460574848
166.2862447923433
183.6144960170468
207.08973935728164
237.74612482379086
276.3643145647388
236.89128220672802
210.43013782374345
189.92610715177113
174.74967032012344
164.0449167387273
156.86610219224394
152.28995703919006
149.51761129597193
147.92125955790354
147.04732937684665
146.59239815443834
146.36765353170776
146.26367973573707
146.22202015332945
146.21552315836158
146.23698841653112
146.2948267660423
146.4147503087081
146.6473042838097
147.08177244806666
147.8672754154409
149.2413467204149
151.5645669067732
155.35685514561203
161.32710905834358
170.3840540981883
183.61452546554304
202.21779551852413
227.39283193937763
260.18857930873236
301.341026692683
246.24663905909176
221.92752039517887
203.40056788390743
189.92608418946978
180.62845850982143
174.53106796385563
170.73222951490223
168.4841633633709
167.220358115891
166.54515828809096
166.20234626250178
166.0374827546813
165.96397121910866
165.93739092043995
165.93880953338146
165.96594718270615
166.03081038940903
166.16301906329184
166.41895179011087
166.89757327343682
167.76398527598775
169.2809810529031
171.84679760425263
176.03364875226515
182.61712322084108
192.58213938818963
207.0897563618732
227.39283202621917
254.6992773656883
290.0020051548132
333.91575079028786
259.814106261428
238.19192560940036
221.92749914818933
210.43012519481528
202.68866273370253
197.7339714029056
194.7223155912397
192.98416375419666
192.03143320228713
191.53526468003687
191.2898792089293
191.17536847407942
191.12691943745435
191.1130319754511
191.1223402228931
191.15756542869443
191.23533496850575
191.3914643604922
191.6922093611596
192.25263373081253
193.2631831126332
195.02437292216402
197.98681789950254
202.7895886765338
210.28475151281387
221.53191272299856
237.7461353780013
260.18858367317586
290.00199789590687
328.00790002451646
374.6318536449454
278.8491752269539
259.8140780298008
246.24662473506098
236.8912838920114
230.74908522851348
226.9176745813989
224.64870763278918
223.37313373572496
222.69212242657898
222.3467572115637
222.1807128291647
222.10615079381853
222.07765691246198
222.07506997393338
222.09407538449076
222.14307036235746
222.2454115860362
222.44706463078015
222.83053396462915
223.53631204160854
224.79261322255195
226.95239702742583
230.53326644937547
236.25116076569387
245.03365691406697
257.9959258775529
276.3643160069526
301.34101625276645
333.91572666911617
374.6318358628724
422.73373815723363
