# vtk DataFile Version 2.0
Unstructured Grid Example
ASCII
DATASET UNSTRUCTURED_GRID

POINTS 961 float
0.150000006 -0.00839745998 0
0.146666661 -0.00839745998 0
0.143333331 -0.00839745998 0
0.140000001 -0.00839745998 0
0.13666667 -0.00839745998 0
0.13333334 -0.00839745998 0
0.129999995 -0.00839745998 0
0.126666665 -0.00839745998 0
0.123333335 -0.00839745998 0
0.119999997 -0.00839745998 0
0.116666667 -0.00839745998 0
0.113333337 -0.00839745998 0
0.109999999 -0.00839745998 0
0.106666669 -0.00839745998 0
0.103333332 -0.00839745998 0
0.100000001 -0.00839745998 0
0.0966666639 -0.00839745998 0
0.0933333337 -0.00839745998 0
0.0900000036 -0.00839745998 0
0.086666666 -0.00839745998 0
0.0833333358 -0.00839745998 0
0.0799999982 -0.00839745998 0
0.0766666681 -0.00839745998 0
0.0733333305 -0.00839745998 0
0.0700000003 -0.00839745998 0
0.0666666701 -0.00839745998 0
0.0633333325 -0.00839745998 0
0.0599999987 -0.00839745998 0
0.0566666685 -0.00839745998 0
0.0533333346 -0.00839745998 0
0.0500000007 -0.00839745998 0
0.148333326 -0.0112842107 0
0.144999996 -0.0112842107 0
0.141666666 -0.0112842107 0
0.138333336 -0.0112842107 0
0.135000005 -0.0112842107 0
0.13166666 -0.0112842107 0
0.12833333 -0.0112842107 0
0.125 -0.0112842107 0
0.12166667 -0.0112842107 0
0.118333332 -0.0112842107 0
0.115000002 -0.0112842107 0
0.111666664 -0.0112842107 0
0.108333334 -0.0112842107 0
0.104999997 -0.0112842107 0
0.101666667 -0.0112842107 0
0.0983333364 -0.0112842107 0
0.0949999988 -0.0112842107 0
0.0916666687 -0.0112842107 0
0.088333331 -0.0112842107 0
0.0850000009 -0.0112842107 0
0.0816666633 -0.0112842107 0
0.0783333331 -0.0112842107 0
0.075000003 -0.0112842107 0
0.0716666654 -0.0112842107 0
0.0683333352 -0.0112842107 0
0.0649999976 -0.0112842107 0
0.0616666675 -0.0112842107 0
0.0583333336 -0.0112842107 0
0.0549999997 -0.0112842107 0
0.0516666658 -0.0112842107 0
0.0483333319 -0.0112842107 0
0.146666661 -0.0141709624 0
0.143333331 -0.0141709624 0
0.140000001 -0.0141709624 0
0.13666667 -0.0141709624 0
0.13333334 -0.0141709624 0
0.129999995 -0.0141709624 0
0.126666665 -0.0141709624 0
0.123333335 -0.0141709624 0
0.119999997 -0.0141709624 0
0.116666667 -0.0141709624 0
0.113333337 -0.0141709624 0
0.109999999 -0.0141709624 0
0.106666669 -0.0141709624 0
0.103333332 -0.0141709624 0
0.100000001 -0.0141709624 0
0.0966666639 -0.0141709624 0
0.0933333337 -0.0141709624 0
0.0900000036 -0.0141709624 0
0.086666666 -0.0141709624 0
0.0833333358 -0.0141709624 0
0.0799999982 -0.0141709624 0
0.0766666681 -0.0141709624 0
0.0733333305 -0.0141709624 0
0.0700000003 -0.0141709624 0
0.0666666701 -0.0141709624 0
0.0633333325 -0.0141709624 0
0.0599999987 -0.0141709624 0
0.0566666685 -0.0141709624 0
0.0533333346 -0.0141709624 0
0.0500000007 -0.0141709624 0
0.0466666669 -0.0141709624 0
0.144999996 -0.0170577131 0
0.141666666 -0.0170577131 0
0.138333336 -0.0170577131 0
0.135000005 -0.0170577131 0
0.13166666 -0.0170577131 0
0.12833333 -0.0170577131 0
0.125 -0.0170577131 0
0.12166667 -0.0170577131 0
0.118333332 -0.0170577131 0
0.115000002 -0.0170577131 0
0.111666664 -0.0170577131 0
0.108333334 -0.0170577131 0
0.104999997 -0.0170577131 0
0.101666667 -0.0170577131 0
0.0983333364 -0.0170577131 0
0.0949999988 -0.0170577131 0
0.0916666687 -0.0170577131 0
0.088333331 -0.0170577131 0
0.0850000009 -0.0170577131 0
0.0816666633 -0.0170577131 0
0.0783333331 -0.0170577131 0
0.075000003 -0.0170577131 0
0.0716666654 -0.0170577131 0
0.0683333352 -0.0170577131 0
0.0649999976 -0.0170577131 0
0.0616666675 -0.0170577131 0
0.0583333336 -0.0170577131 0
0.0549999997 -0.0170577131 0
0.0516666658 -0.0170577131 0
0.0483333319 -0.0170577131 0
0.0450000018 -0.0170577131 0
0.143333331 -0.0199444648 0
0.140000001 -0.0199444648 0
0.13666667 -0.0199444648 0
0.13333334 -0.0199444648 0
0.129999995 -0.0199444648 0
0.126666665 -0.0199444648 0
0.123333335 -0.0199444648 0
0.119999997 -0.0199444648 0
0.116666667 -0.0199444648 0
0.113333337 -0.0199444648 0
0.109999999 -0.0199444648 0
0.106666669 -0.0199444648 0
0.103333332 -0.0199444648 0
0.100000001 -0.0199444648 0
0.0966666639 -0.0199444648 0
0.0933333337 -0.0199444648 0
0.0900000036 -0.0199444648 0
0.086666666 -0.0199444648 0
0.0833333358 -0.0199444648 0
0.0799999982 -0.0199444648 0
0.0766666681 -0.0199444648 0
0.0733333305 -0.0199444648 0
0.0700000003 -0.0199444648 0
0.0666666701 -0.0199444648 0
0.0633333325 -0.0199444648 0
0.0599999987 -0.0199444648 0
0.0566666685 -0.0199444648 0
0.0533333346 -0.0199444648 0
0.0500000007 -0.0199444648 0
0.0466666669 -0.0199444648 0
0.043333333 -0.0199444648 0
0.141666666 -0.0228312165 0
0.138333336 -0.0228312165 0
0.135000005 -0.0228312165 0
0.13166666 -0.0228312165 0
0.12833333 -0.0228312165 0
0.125 -0.0228312165 0
0.12166667 -0.0228312165 0
0.118333332 -0.0228312165 0
0.115000002 -0.0228312165 0
0.111666664 -0.0228312165 0
0.108333334 -0.0228312165 0
0.104999997 -0.0228312165 0
0.101666667 -0.0228312165 0
0.0983333364 -0.0228312165 0
0.0949999988 -0.0228312165 0
0.0916666687 -0.0228312165 0
0.088333331 -0.0228312165 0
0.0850000009 -0.0228312165 0
0.0816666633 -0.0228312165 0
0.0783333331 -0.0228312165 0
0.075000003 -0.0228312165 0
0.0716666654 -0.0228312165 0
0.0683333352 -0.0228312165 0
0.0649999976 -0.0228312165 0
0.0616666675 -0.0228312165 0
0.0583333336 -0.0228312165 0
0.0549999997 -0.0228312165 0
0.0516666658 -0.0228312165 0
0.0483333319 -0.0228312165 0
0.0450000018 -0.0228312165 0
0.0416666679 -0.0228312165 0
0.140000001 -0.0257179681 0
0.13666667 -0.0257179681 0
0.13333334 -0.0257179681 0
0.129999995 -0.0257179681 0
0.126666665 -0.0257179681 0
0.123333335 -0.0257179681 0
0.119999997 -0.0257179681 0
0.116666667 -0.0257179681 0
0.113333337 -0.0257179681 0
0.109999999 -0.0257179681 0
0.106666669 -0.0257179681 0
0.103333332 -0.0257179681 0
0.100000001 -0.0257179681 0
0.0966666639 -0.0257179681 0
0.0933333337 -0.0257179681 0
0.0900000036 -0.0257179681 0
0.086666666 -0.0257179681 0
0.0833333358 -0.0257179681 0
0.0799999982 -0.0257179681 0
0.0766666681 -0.0257179681 0
0.0733333305 -0.0257179681 0
0.0700000003 -0.0257179681 0
0.0666666701 -0.0257179681 0
0.0633333325 -0.0257179681 0
0.0599999987 -0.0257179681 0
0.0566666685 -0.0257179681 0
0.0533333346 -0.0257179681 0
0.0500000007 -0.0257179681 0
0.0466666669 -0.0257179681 0
0.043333333 -0.0257179681 0
0.0399999991 -0.0257179681 0
0.138333336 -0.0286047198 0
0.135000005 -0.0286047198 0
0.13166666 -0.0286047198 0
0.12833333 -0.0286047198 0
0.125 -0.0286047198 0
0.12166667 -0.0286047198 0
0.118333332 -0.0286047198 0
0.115000002 -0.0286047198 0
0.111666664 -0.0286047198 0
0.108333334 -0.0286047198 0
0.104999997 -0.0286047198 0
0.101666667 -0.0286047198 0
0.0983333364 -0.0286047198 0
0.0949999988 -0.0286047198 0
0.0916666687 -0.0286047198 0
0.088333331 -0.0286047198 0
0.0850000009 -0.0286047198 0
0.0816666633 -0.0286047198 0
0.0783333331 -0.0286047198 0
0.075000003 -0.0286047198 0
0.0716666654 -0.0286047198 0
0.0683333352 -0.0286047198 0
0.0649999976 -0.0286047198 0
0.0616666675 -0.0286047198 0
0.0583333336 -0.0286047198 0
0.0549999997 -0.0286047198 0
0.0516666658 -0.0286047198 0
0.0483333319 -0.0286047198 0
0.0450000018 -0.0286047198 0
0.0416666679 -0.0286047198 0
0.038333334 -0.0286047198 0
0.13666667 -0.0314914696 0
0.13333334 -0.0314914696 0
0.129999995 -0.0314914696 0
0.126666665 -0.0314914696 0
0.123333335 -0.0314914696 0
0.119999997 -0.0314914696 0
0.116666667 -0.0314914696 0
0.113333337 -0.0314914696 0
0.109999999 -0.0314914696 0
0.106666669 -0.0314914696 0
0.103333332 -0.0314914696 0
0.100000001 -0.0314914696 0
0.0966666639 -0.0314914696 0
0.0933333337 -0.0314914696 0
0.0900000036 -0.0314914696 0
0.086666666 -0.0314914696 0
0.0833333358 -0.0314914696 0
0.0799999982 -0.0314914696 0
0.0766666681 -0.0314914696 0
0.0733333305 -0.0314914696 0
0.0700000003 -0.0314914696 0
0.0666666701 -0.0314914696 0
0.0633333325 -0.0314914696 0
0.0599999987 -0.0314914696 0
0.0566666685 -0.0314914696 0
0.0533333346 -0.0314914696 0
0.0500000007 -0.0314914696 0
0.0466666669 -0.0314914696 0
0.043333333 -0.0314914696 0
0.0399999991 -0.0314914696 0
0.0366666652 -0.0314914696 0
0.135000005 -0.0343782231 0
0.13166666 -0.0343782231 0
0.12833333 -0.0343782231 0
0.125 -0.0343782231 0
0.12166667 -0.0343782231 0
0.118333332 -0.0343782231 0
0.115000002 -0.0343782231 0
0.111666664 -0.0343782231 0
0.108333334 -0.0343782231 0
0.104999997 -0.0343782231 0
0.101666667 -0.0343782231 0
0.0983333364 -0.0343782231 0
0.0949999988 -0.0343782231 0
0.0916666687 -0.0343782231 0
0.088333331 -0.0343782231 0
0.0850000009 -0.0343782231 0
0.0816666633 -0.0343782231 0
0.0783333331 -0.0343782231 0
0.075000003 -0.0343782231 0
0.0716666654 -0.0343782231 0
0.0683333352 -0.0343782231 0
0.0649999976 -0.0343782231 0
0.0616666675 -0.0343782231 0
0.0583333336 -0.0343782231 0
0.0549999997 -0.0343782231 0
0.0516666658 -0.0343782231 0
0.0483333319 -0.0343782231 0
0.0450000018 -0.0343782231 0
0.0416666679 -0.0343782231 0
0.038333334 -0.0343782231 0
0.0350000001 -0.0343782231 0
0.13333334 -0.0372649729 0
0.129999995 -0.0372649729 0
0.126666665 -0.0372649729 0
0.123333335 -0.0372649729 0
0.119999997 -0.0372649729 0
0.116666667 -0.0372649729 0
0.113333337 -0.0372649729 0
0.109999999 -0.0372649729 0
0.106666669 -0.0372649729 0
0.103333332 -0.0372649729 0
0.100000001 -0.0372649729 0
0.0966666639 -0.0372649729 0
0.0933333337 -0.0372649729 0
0.0900000036 -0.0372649729 0
0.086666666 -0.0372649729 0
0.0833333358 -0.0372649729 0
0.0799999982 -0.0372649729 0
0.0766666681 -0.0372649729 0
0.0733333305 -0.0372649729 0
0.0700000003 -0.0372649729 0
0.0666666701 -0.0372649729 0
0.0633333325 -0.0372649729 0
0.0599999987 -0.0372649729 0
0.0566666685 -0.0372649729 0
0.0533333346 -0.0372649729 0
0.0500000007 -0.0372649729 0
0.0466666669 -0.0372649729 0
0.043333333 -0.0372649729 0
0.0399999991 -0.0372649729 0
0.0366666652 -0.0372649729 0
0.0333333351 -0.0372649729 0
0.13166666 -0.0401517227 0
0.12833333 -0.0401517227 0
0.125 -0.0401517227 0
0.12166667 -0.0401517227 0
0.118333332 -0.0401517227 0
0.115000002 -0.0401517227 0
0.111666664 -0.0401517227 0
[...]
POINT_DATA 961
SCALARS Temp float 1
LOOKUP_TABLE default
430.0811624239596
382.2393244140733
341.4853585732351
308.58624331915087
283.0791904446781
264.0723637156432
250.45519023659213
241.07127792176732
234.8469234991877
230.8695770495392
228.41864386027805
226.96042817821967
226.1217262445321
225.65486101067816
225.40322766051818
225.27235818464362
225.208237354358
225.18275363020766
225.1854977838131
225.22124179450913
225.31312093463868
225.51221862001555
225.9146315121053
226.68653299174687
228.09565792091112
230.54413385205322
234.59307549754612
240.96649403278926
250.52451671159352
264.210054174338
283.21159239933564
382.2393388337571
335.76147611085275
297.5729592577752
267.31917118932
244.27226996651308
227.38820557563227
215.49006621312816
207.42074186150012
202.150129166294
198.8315657608518
196.81520165244913
195.63150943009182
194.95933468903138
194.5897505554094
194.39312516443283
194.29282078449972
194.24636288490657
194.2335698977668
194.2508299277009
194.3111624110072
194.45041143861602
194.74053360308002
195.31092995543543
196.37750413402426
198.27630331585607
201.49436503631733
206.6860690938321
214.6620014279362
226.3412037771421
242.67519196075287
264.2100738842663
341.4853122798277
297.57293758313773
261.9744148962419
234.154853345773
213.21670484214746
198.04346803362168
187.45496080217433
180.3361239254617
175.72193310054882
172.83610878307277
171.0927892308644
170.07443505355403
169.4986052298383
169.18325993054916
169.01643151856976
168.93270432956274
168.89690792373096
168.89444687973236
168.92768016477137
169.01830644365268
169.21636804875155
169.61688517201446
170.3846368507027
171.78566582352897
174.22062132453345
178.25047841265942
184.60150087496535
194.1357544835414
207.775858200807
226.341194466689
250.5245272193105
308.58618526442297
267.3191395907966
234.15485359912876
208.43646223059392
189.2026020117522
175.33433080014686
165.69288192285987
159.22792579509786
155.04450154552785
152.4301871535714
150.85101146892063
149.9280971461003
149.40580054199017
149.11962329623924
148.96859539442465
148.89417314156017
148.86593807606297
148.87367572177925
148.92553184388646
149.05245215953346
149.31967107919235
149.84608575238727
150.83134668164132
152.58804076092045
155.57244285517467
160.40285369505352
167.8518828512463
178.79928220659855
194.13577041481147
214.66201459010622
240.96648553699814
283.079136468619
244.27224051055973
213.2166883866617
189.20267226047253
171.2716720945968
158.34818921478137
149.35857896557167
143.32265933469492
139.40935906036816
136.95809405899234
135.47351761383538
134.6035047826332
134.1098567038279
133.83891997143172
133.6963131863299
133.62770279466068
133.60600461797534
133.62483680637138
133.69815985059412
133.86647599148256
134.2103374655227
134.8716523488338
136.08184282328781
138.19310622923976
141.7049952471687
147.27473821860738
155.69822838674813
167.85187589683736
184.60149606733185
206.68606753109756
234.59308126355063
264.0723091647585
227.3882432018035
198.04351758952387
175.3342988365508
158.3481766523219
146.07574342848952
137.5141634829376
131.74735729731935
127.99624124472538
125.63887538381579
124.20667050437488
123.3648829704663
122.88607076805583
122.62299237421465
122.48513739301191
122.42085167582806
122.40564159398023
122.43670268990779
122.53376443152888
122.74669864652049
123.17049408408155
123.96763506726163
125.3962256372612
127.83921782819512
131.8262960601391
138.0371638479807
147.27473497125243
160.40285506642257
178.25048534181462
201.49434357253543
230.54412826837893
250.4552002997838
215.4900903795383
187.4550085074402
165.6928443028201
149.35856377656037
137.51415941352084
129.2213119636955
123.61622317551704
119.95854560981223
117.65315234623849
116.24885522526542
115.42161443603833
114.9503042025897
114.69135384344837
114.556544779473
114.49606464716089
114.48761455172706
114.53176147165352
114.65372325327436
114.91200194342287
115.41425068683817
116.33997887431892
117.96787241043928
120.70252541849784
125.0920970118165
131.82629211055675
141.7049870325431
155.57243099655028
174.22062010471888
198.2763013784265
228.09566653893293
241.0712938429028
207.4207695123116
180.33606634354834
159.2278921262698
143.32265919280485
131.74736898636013
123.61622026650456
118.1044051801648
114.49848248170058
112.22080145749042
110.83086027682045
110.01090490584313
109.54336985617434
109.28675666395972
109.15425975707362
109.09745219389414
109.0959700977231
109.1534747661623
109.30011682752853
109.60182556047428
110.17657181616832
111.21686990904178
113.01591290077046
115.99191903242773
120.70252317116427
127.83921456235818
138.19310827568532
152.58804211755753
171.78565106867987
196.3774847536334
226.68652284112468
234.8469316161077
202.15016330987393
175.72188847292097
155.04448368611398
139.4093616886336
127.99623074479912
119.95854286303035
114.49849076472692
110.92020325959287
108.65678707510641
107.27401022041647
106.45764070492625
105.99206795411531
105.73697412111956
105.60648725060133
105.55329481662856
105.55872826474697
105.62915732927314
105.79889421097718
106.13982193687939
106.7776975439362
107.91416765846405
109.85167804604023
113.01591504888417
117.96787324639432
125.39622511877108
136.08184143095153
150.83134238026943
170.38464049546204
195.31093712257635
225.91465045212334
230.86961533049399
198.8315014576655
172.8360852049984
152.43018324138538
136.95810674813214
125.63887428315327
117.6531583670923
112.22079936857077
108.65678543013252
106.40049162868289
105.02122136778694
104.20663716901616
103.74218947843241
103.48825677770431
103.35963385733436
103.30992534027449
103.32189846511803
103.40415923991621
103.59430157540199
103.96864467588264
104.65837428097655
105.87098868067953
107.91416607278482
111.21686958571165
116.33997851651807
123.96763430808969
134.8716517975407
149.84606796718555
169.61687025949692
194.7405166873214
225.5122102089083
228.4187041239089
196.8151509757244
171.09277571229933
150.85101741498406
135.47350647454593
124.20667172714502
116.24886321757373
110.83086068018554
107.27401231043557
105.02122116967013
103.643684192074
102.83006395380394
102.36638832342825
102.11346669692631
101.98659540978451
101.94012194257532
101.95797123662167
102.0504828561089
102.25766370814526
102.65889632619071
103.38884332613223
104.65837616977791
106.77769805050406
110.17657037856291
115.41424841043519
123.17049281348586
134.21033451873032
149.31966918481706
169.21637337919947
194.45041993948408
225.31310770966112
226.96036732517416
195.63147607842484
170.07443251023008
149.9281096656711
134.60349520630413
123.36488744496732
115.42160951322215
110.01090590626761
106.45763697730472
104.20663710472677
102.83006544080655
102.01710366953061
101.55409654315046
101.30213776539073
101.17690394977757
101.13332118155645
101.15619578324204
101.25712530765423
101.47776813039236
101.8994626570518
102.65889777952948
103.96864571217986
106.13982121791338
109.60182872746606
114.91200630501531
122.7467058526898
133.86647089530504
149.05244605353434
169.0183077955386
194.3111643979053
225.2212557808641
226.12169675701531
194.95932789603955
169.49862228734577
149.40578629952395
134.10985875329948
122.8860838459271
114.95030311672826
109.54337423201754
105.99206624019824
103.74219078137314
102.36638748541762
101.55409603977915
101.09182752315462
100.84086786781484
100.71717389561172
100.67610273856732
100.70309295132962
100.81059781198799
101.04132679268979
101.4777669226427
102.25766332602869
103.5943030413215
105.79889149365212
109.30011581835232
114.65372158094634
122.53376198232606
133.69815809517038
148.9255302345514
168.92768700121323
194.25080713203778
225.1855016817391
225.6548371025304
194.58974857637966
169.18328300090695
149.11961066846612
133.83892408349115
122.62298401017667
114.69135449414382
109.28675316715831
105.73697299816543
103.48825873263628
102.11346569573399
101.30213776916185
100.8408677421654
100.591065141051
100.46888336635838
100.42998835411593
100.4602507319992
100.57267479613628
100.81059762507037
101.25712563776075
102.05048274540258
103.40416015732998
105.62915707948267
109.15347742828878
114.53176597501643
122.43669915251223
133.62483237562904
148.87367061156613
168.89444830478553
194.23357366847193
225.18275278271273
225.40322598615805
194.39314393453262
169.016417228133
148.96859604250577
133.6963295590884
122.48513563024817
114.55655162033466
109.15425902416462
105.60648719997138
103.35963344020354
101.9865954138917
101.17690431048602
100.71717376233161
100.46888352268302
100.3483281089327
100.31139505862774
100.34425128386859
100.46025060961345
100.7030926386796
101.15619537288555
101.95797127764635
103.3218978279951
105.55872568368727
109.09596917457282
114.48761283898087
122.40564050256114
133.60600375070644
148.86593771752948
168.8968915417826
194.24635900494656
225.2082289288365
225.27235862536736
194.29284300984827
168.93269171320858
148.89417668642474
133.62769041681338
122.42085159573557
114.49605861240163
109.09745261223311
105.55329615605851
103.3099249550829
101.94012214439869
101.133320305386
100.6761027948049
100.42998813146653
100.31139506408154
100.27639767513902
100.31139512615057
100.4299882224288
100.67610310929817
101.13332069679619
101.94012170347642
103.30992634271381
105.55329480080906
109.09745526455906
114.49606204911137
122.4208485749646
133.62769987950958
148.89416862530206
168.9327088072958
194.29281087141618
225.2723601142164
225.20825943035857
194.2463396539502
168.8969149090659
148.8659578229193
133.60600116062963
122.40565050137214
114.48761323149321
109.09597281093373
105.55872569555567
103.32189952519201
101.95797250852527
101.15619537983873
100.70309342435048
100.46025068632224
100.3442513475106
100.31139517294838
100.34832820818787
100.4688832492067
100.71717389935009
101.17690371069673
101.98659449416915
103.35963347438984
105.60648483802123
109.15425862434498
114.55654433858632
122.48513705733444
133.69631364661828
148.96857652506404
169.01642859272033
194.39310842622407
225.40321967928978
225.18278532734814
194.233552410911
168.8944580637114
148.87365700771423
133.62483589784145
122.4366936316851
114.53176170806215
109.15347930869517
105.62915478319043
103.40416083999678
102.05048206244818
101.25712509058451
100.81059744777956
100.57267466685873
100.46025084043247
100.42998838209144
100.46888340361203
100.59106530922276
100.84086794728002
101.30213748294696
102.11346648100955
103.4882577718502
105.73697453818528
109.28675513274491
114.69135193898501
122.62298997140802
133.8389166534025
149.11962135702356
169.18325150134712
194.58974198173084
225.65486224153304
225.18546482648344
194.25081964603118
168.92769763775567
148.92551475497802
133.69816277255777
122.53375606059726
114.65372257201263
109.30011285423049
105.79889229422666
103.59430384195586
102.25766256360743
101.4777677963862
101.04132659321779
100.81059767599899
100.70309293093557
100.67610272871985
100.71717378239482
100.8408680115988
101.09182732304001
101.55409581310096
102.36638804631924
103.74219025065017
105.99206751835929
109.54337173270403
114.95030773217289
122.88607739649751
134.109851051013
149.40580365342387
169.4986046405002
194.95933490975318
226.1217368894403
225.2212344485997
194.3111753914341
169.01828865996492
149.05244979266485
133.8664626042111
122.74669947150758
114.91200893165924
109.60182520334797
106.13982229773632
103.96864462241403
102.65889689702817
101.89946234971495
101.47776788706753
101.25712555491117
101.15619580958516
101.13332118577846
101.17690402958316
101.30213785695851
101.55409636029252
102.01710409216031
102.83006479126553
104.20663797126704
106.4576380334761
110.01090393219847
115.42161318373245
123.36488145833201
134.60350258443256
149.92808443203145
170.07442778737146
195.631501321494
226.96042862208995
225.31311721493182
194.45042972709874
169.216351835099
149.31967447874808
134.2103260360148
123.17049417648342
115.41424400663719
110.17657164753527
106.77769934815836
104.65837497671797
103.3888448017456
102.65889604514021
102.25766349171903
102.05048279056753
101.95797115205487
101.94012193497868
101.98659552018586
102.11346656542503
102.3663882100907
102.83006425391305
103.64368381425058
105.02122188641336
107.27401056457646
110.83086365027806
116.24885854709179
124.2066663299815
135.47352010220553
150.85100611966948
171.09278804220463
196.81520144265076
228.4186403866674
225.5122165905449
194.74048962487655
169.61687417752532
149.84605667141872
134.87164310119297
123.96763807519409
116.33997354447949
111.21687131281436
107.91416449314386
105.87098737596014
104.65837380208995
103.96864425892984
103.59430202776116
103.4041593231171
103.32189846137844
103.3099253724966
103.35963387970646
103.48825667128324
103.74218970751993
104.20663677468455
105.02122190993884
106.40049222491038
108.65678417732033
112.2208019154523
117.65315452870249
125.63888066266419
136.95808991117462
152.43018474888885
172.83611667113354
198.83157692085595
230.86959327838662
225.9146788184178
195.31092905834382
170.3846628980949
150.83134415040365
136.08185377238118
125.3962272832214
117.96788189366231
113.01592263067502
109.85168109352185
107.9141742953999
106.77770120893467
106.13982545539561
105.79889781439113
105.62916079727647
105.55873198664823
105.55329856889176
105.60649072281879
105.7369776399993
105.99207155373881
106.45764371383564
107.27401363917669
108.65678856035518
110.92020718553759
114.4984887549037
119.9585395005945
127.99623989156296
139.4093516464955
155.04449170665208
175.721928242392
202.15009931812364
234.84690515284
226.6865163843199
196.3775109521019
171.78565397846765
152.58804508482427
138.1931250933739
127.83921771102503
120.70253406619717
115.99192419299604
113.01591772858671
111.21687540532514
110.17657708348023
109.60183208910593
109.30012276682358
109.15348045703028
109.09597575178073
109.09745778116036
109.15426529758942
109.28676232861362
109.54337508854715
110.01091060424739
110.8308656225627
112.2208053728614
114.49848829915263
118.10440597120433
123.61622725783724
131.74735788499333
143.322660407844
159.2279150947536
180.33612092364334
207.4207349841895
241.07127760961737
228.09565189685236
198.27632100266993
174.22061611962354
155.57244210735055
141.70498616781202
131.82630100510497
125.0921053039974
120.70252790581482
117.96788037397523
116.33998291900005
115.41425456856656
114.91200595897955
114.65372704390809
114.5317658089878
114.48761893767781
114.49606868706688
114.5565490428507
114.69135809715432
114.9503081222232
115.42161874165365
116.24885856177015
117.65315746688822
119.95854720937956
123.61622472209433
129.22132291629933
137.51415725130536
149.35857603073777
165.69288146928622
187.45495660442828
215.49006483228968
250.45520224060712
230.54413647103806
201.49432823974036
178.2504732436124
160.40286273014263
147.27472759851017
138.03716792261577
131.82629370065942
127.83921575381117
125.39622481419833
123.96763415202113
123.1704952160763
122.74669915223582
122.53376456296027
122.43670274591548
122.4056415568152
122.42085174761888
122.485137551412
122.6229923833375
122.88607128739525
123.36488324101506
124.20667033825937
125.63887690182025
127.99624003918377
131.74736115985232
137.51415530556991
146.07574524277405
158.3481957568308
175.33434241701008
198.0434832011871
227.3882168191759
264.0723100062399
234.59307851124484
206.68604135387795
184.60149031312568
167.85185728897085
155.69822315308855
147.27473321720512
141.70498345176512
138.19310199034007
136.0818339152807
134.8716433205048
134.21032863147204
133.86646681367574
133.69815156021392
133.6248286193358
133.60599596633497
133.62769455408827
133.69630484884388
133.8389114217063
134.1098485354225
134.60349625817696
135.47351040947675
136.95808480801128
139.40935060624184
143.32265776786312
149.35856798753878
158.34818918109812
171.27169057917683
189.20261357409188
213.21664574033625
244.27221268400712
283.07913167791514
240.9664986142171
214.66202982453905
194.1358070533334
178.79929990075442
167.85191265615396
160.40287484092204
155.57246374256744
152.58806264436987
150.8313681600218
149.84610979196376
149.3196943577316
149.05247485109095
148.92555435754394
148.87369807165985
148.86596066382629
148.89419572815873
148.9686179089075
149.11964623243014
149.40582294801231
149.92811927837374
150.85103443360637
152.43020766749058
155.0445245856886
159.22793849374173
165.69289977096878
175.3343585209916
189.20264390623976
208.43642944886832
234.15481552255787
267.3191095894235
308.58618880016473
250.52453836551607
226.34122783739105
207.775874560903
194.13578386308805
184.60152914577966
178.2504979139057
174.2206490038921
171.78568789758552
170.3846585881802
169.61690697344375
169.21638924113515
169.0183287216427
168.92770258647647
168.8944687434215
168.89693032571333
168.93272650806418
169.01645343831026
169.183282045778
169.4986270713071
170.0744574740884
171.0928096834895
172.8361294617349
175.7219574865146
180.33613885069826
187.45498135959684
198.04349872555193
213.21666303623027
234.1548152127063
261.9743751748852
297.5729029078183
341.48530797142524
264.21007682311574
242.67521543546908
226.34120640847718
214.66201702254156
206.6860756090852
201.4943714904936
198.2763109609171
196.37751149683243
195.31094049668766
194.74054328511727
194.45042030860444
194.3111711123506
194.25083845886746
194.23357886300283
194.24637177286334
194.29282967389616
194.39313448667198
194.5897592583193
194.95934346033917
195.63151887661826
196.8152092714378
198.83157525760112
202.1501305154104
207.42074711589134
215.4900784758352
227.38822806610065
244.27222359744957
267.3191134560971
297.572895466833
335.7614158697807
382.2392421273134
283.2116087585017
264.2100484688326
250.52452386168696
240.96650020093452
234.5930721856003
230.54413926895634
228.09565732311415
226.68653311671153
225.91463163739613
225.51221717066633
225.3131210024659
225.22124187456802
225.18549773723348
225.1827539561218
225.20823742441465
225.27235822230878
225.40322730209672
225.6548610957835
226.12172654934838
226.96042686539394
228.41864289747804
230.86957938905903
234.84691828866974
241.07127661640888
250.45519547598107
264.07230409550874
283.0791335488794
308.58617804059315
341.4852837279437
382.23922439914816
430.0807537236258
