# vtk DataFile Version 2.0
Unstructured Grid Example
ASCII
DATASET UNSTRUCTURED_GRID

POINTS 961 float
0.150000006 -0.00839745998 0
0.146666661 -0.00839745998 0
0.143333331 -0.00839745998 0
0.140000001 -0.00839745998 0
0.13666667 -0.00839745998 0
0.13333334 -0.00839745998 0
0.129999995 -0.00839745998 0
0.126666665 -0.00839745998 0
0.123333335 -0.00839745998 0
0.119999997 -0.00839745998 0
0.116666667 -0.00839745998 0
0.113333337 -0.00839745998 0
0.109999999 -0.00839745998 0
0.106666669 -0.00839745998 0
0.103333332 -0.00839745998 0
0.100000001 -0.00839745998 0
0.0966666639 -0.00839745998 0
0.0933333337 -0.00839745998 0
0.0900000036 -0.00839745998 0
0.086666666 -0.00839745998 0
0.0833333358 -0.00839745998 0
0.0799999982 -0.00839745998 0
0.0766666681 -0.00839745998 0
0.0733333305 -0.00839745998 0
0.0700000003 -0.00839745998 0
0.0666666701 -0.00839745998 0
0.0633333325 -0.00839745998 0
0.0599999987 -0.00839745998 0
0.0566666685 -0.00839745998 0
0.0533333346 -0.00839745998 0
0.0500000007 -0.00839745998 0
0.148333326 -0.0112842107 0
0.144999996 -0.0112842107 0
0.141666666 -0.0112842107 0
0.138333336 -0.0112842107 0
0.135000005 -0.0112842107 0
0.13166666 -0.0112842107 0
0.12833333 -0.0112842107 0
0.125 -0.0112842107 0
0.12166667 -0.0112842107 0
0.118333332 -0.0112842107 0
0.115000002 -0.0112842107 0
0.111666664 -0.0112842107 0
0.108333334 -0.0112842107 0
0.104999997 -0.0112842107 0
0.101666667 -0.0112842107 0
0.0983333364 -0.0112842107 0
0.0949999988 -0.0112842107 0
0.0916666687 -0.0112842107 0
0.088333331 -0.0112842107 0
0.0850000009 -0.0112842107 0
0.0816666633 -0.0112842107 0
0.0783333331 -0.0112842107 0
0.075000003 -0.0112842107 0
0.0716666654 -0.0112842107 0
0.0683333352 -0.0112842107 0
0.0649999976 -0.0112842107 0
0.0616666675 -0.0112842107 0
0.0583333336 -0.0112842107 0
0.0549999997 -0.0112842107 0
0.0516666658 -0.0112842107 0
0.0483333319 -0.0112842107 0
0.146666661 -0.0141709624 0
0.143333331 -0.0141709624 0
0.140000001 -0.0141709624 0
0.13666667 -0.0141709624 0
0.13333334 -0.0141709624 0
0.129999995 -0.0141709624 0
0.126666665 -0.0141709624 0
0.123333335 -0.0141709624 0
0.119999997 -0.0141709624 0
0.116666667 -0.0141709624 0
0.113333337 -0.0141709624 0
0.109999999 -0.0141709624 0
0.106666669 -0.0141709624 0
0.103333332 -0.0141709624 0
0.100000001 -0.0141709624 0
0.0966666639 -0.0141709624 0
0.0933333337 -0.0141709624 0
0.0900000036 -0.0141709624 0
0.086666666 -0.0141709624 0
0.0833333358 -0.0141709624 0
0.0799999982 -0.0141709624 0
0.0766666681 -0.0141709624 0
0.0733333305 -0.0141709624 0
0.0700000003 -0.0141709624 0
0.0666666701 -0.0141709624 0
0.0633333325 -0.0141709624 0
0.0599999987 -0.0141709624 0
0.0566666685 -0.0141709624 0
0.0533333346 -0.0141709624 0
0.0500000007 -0.0141709624 0
0.0466666669 -0.0141709624 0
0.144999996 -0.0170577131 0
0.141666666 -0.0170577131 0
0.138333336 -0.0170577131 0
0.135000005 -0.0170577131 0
0.13166666 -0.0170577131 0
0.12833333 -0.0170577131 0
0.125 -0.0170577131 0
0.12166667 -0.0170577131 0
0.118333332 -0.0170577131 0
0.115000002 -0.0170577131 0
0.111666664 -0.0170577131 0
0.108333334 -0.0170577131 0
0.104999997 -0.0170577131 0
0.101666667 -0.0170577131 0
0.0983333364 -0.0170577131 0
0.0949999988 -0.0170577131 0
0.0916666687 -0.0170577131 0
0.088333331 -0.0170577131 0
0.0850000009 -0.0170577131 0
0.0816666633 -0.0170577131 0
0.0783333331 -0.0170577131 0
0.075000003 -0.0170577131 0
0.0716666654 -0.0170577131 0
0.0683333352 -0.0170577131 0
0.0649999976 -0.0170577131 0
0.0616666675 -0.0170577131 0
0.0583333336 -0.0170577131 0
0.0549999997 -0.0170577131 0
0.0516666658 -0.0170577131 0
0.0483333319 -0.0170577131 0
0.0450000018 -0.0170577131 0
0.143333331 -0.0199444648 0
0.140000001 -0.0199444648 0
0.13666667 -0.0199444648 0
0.13333334 -0.0199444648 0
0.129999995 -0.0199444648 0
0.126666665 -0.0199444648 0
0.123333335 -0.0199444648 0
0.119999997 -0.0199444648 0
0.116666667 -0.0199444648 0
0.113333337 -0.0199444648 0
0.109999999 -0.0199444648 0
0.106666669 -0.0199444648 0
0.103333332 -0.0199444648 0
0.100000001 -0.0199444648 0
0.0966666639 -0.0199444648 0
0.0933333337 -0.0199444648 0
0.0900000036 -0.0199444648 0
0.086666666 -0.0199444648 0
0.0833333358 -0.0199444648 0
0.0799999982 -0.0199444648 0
0.0766666681 -0.0199444648 0
0.0733333305 -0.0199444648 0
0.0700000003 -0.0199444648 0
0.0666666701 -0.0199444648 0
0.0633333325 -0.0199444648 0
0.0599999987 -0.0199444648 0
0.0566666685 -0.0199444648 0
0.0533333346 -0.0199444648 0
0.0500000007 -0.0199444648 0
0.0466666669 -0.0199444648 0
0.043333333 -0.0199444648 0
0.141666666 -0.0228312165 0
0.138333336 -0.0228312165 0
0.135000005 -0.0228312165 0
0.13166666 -0.0228312165 0
0.12833333 -0.0228312165 0
0.125 -0.0228312165 0
0.12166667 -0.0228312165 0
0.118333332 -0.0228312165 0
0.115000002 -0.0228312165 0
0.111666664 -0.0228312165 0
0.108333334 -0.0228312165 0
0.104999997 -0.0228312165 0
0.101666667 -0.0228312165 0
0.0983333364 -0.0228312165 0
0.0949999988 -0.0228312165 0
0.0916666687 -0.0228312165 0
0.088333331 -0.0228312165 0
0.0850000009 -0.0228312165 0
0.0816666633 -0.0228312165 0
0.0783333331 -0.0228312165 0
0.075000003 -0.0228312165 0
0.0716666654 -0.0228312165 0
0.0683333352 -0.0228312165 0
0.0649999976 -0.0228312165 0
0.0616666675 -0.0228312165 0
0.0583333336 -0.0228312165 0
0.0549999997 -0.0228312165 0
0.0516666658 -0.0228312165 0
0.0483333319 -0.0228312165 0
0.0450000018 -0.0228312165 0
0.0416666679 -0.0228312165 0
0.140000001 -0.0257179681 0
0.13666667 -0.0257179681 0
0.13333334 -0.0257179681 0
0.129999995 -0.0257179681 0
0.126666665 -0.0257179681 0
0.123333335 -0.0257179681 0
0.119999997 -0.0257179681 0
0.116666667 -0.0257179681 0
0.113333337 -0.0257179681 0
0.109999999 -0.0257179681 0
0.106666669 -0.0257179681 0
0.103333332 -0.0257179681 0
0.100000001 -0.0257179681 0
0.0966666639 -0.0257179681 0
0.0933333337 -0.0257179681 0
0.0900000036 -0.0257179681 0
0.086666666 -0.0257179681 0
0.0833333358 -0.0257179681 0
0.0799999982 -0.0257179681 0
0.0766666681 -0.0257179681 0
0.0733333305 -0.0257179681 0
0.0700000003 -0.0257179681 0
0.0666666701 -0.0257179681 0
0.0633333325 -0.0257179681 0
0.0599999987 -0.0257179681 0
0.0566666685 -0.0257179681 0
0.0533333346 -0.0257179681 0
0.0500000007 -0.0257179681 0
0.0466666669 -0.0257179681 0
0.043333333 -0.0257179681 0
0.0399999991 -0.0257179681 0
0.138333336 -0.0286047198 0
0.135000005 -0.0286047198 0
0.13166666 -0.0286047198 0
0.12833333 -0.0286047198 0
0.125 -0.0286047198 0
0.12166667 -0.0286047198 0
0.118333332 -0.0286047198 0
0.115000002 -0.0286047198 0
0.111666664 -0.0286047198 0
0.108333334 -0.0286047198 0
0.104999997 -0.0286047198 0
0.101666667 -0.0286047198 0
0.0983333364 -0.0286047198 0
0.0949999988 -0.0286047198 0
0.0916666687 -0.0286047198 0
0.088333331 -0.0286047198 0
0.0850000009 -0.0286047198 0
0.0816666633 -0.0286047198 0
0.0783333331 -0.0286047198 0
0.075000003 -0.0286047198 0
0.0716666654 -0.0286047198 0
0.0683333352 -0.0286047198 0
0.0649999976 -0.0286047198 0
0.0616666675 -0.0286047198 0
0.0583333336 -0.0286047198 0
0.0549999997 -0.0286047198 0
0.0516666658 -0.0286047198 0
0.0483333319 -0.0286047198 0
0.0450000018 -0.0286047198 0
0.0416666679 -0.0286047198 0
0.038333334 -0.0286047198 0
0.13666667 -0.0314914696 0
0.13333334 -0.0314914696 0
0.129999995 -0.0314914696 0
0.126666665 -0.0314914696 0
0.123333335 -0.0314914696 0
0.119999997 -0.0314914696 0
0.116666667 -0.0314914696 0
0.113333337 -0.0314914696 0
0.109999999 -0.0314914696 0
0.106666669 -0.0314914696 0
0.103333332 -0.0314914696 0
0.100000001 -0.0314914696 0
0.0966666639 -0.0314914696 0
0.0933333337 -0.0314914696 0
0.0900000036 -0.0314914696 0
0.086666666 -0.0314914696 0
0.0833333358 -0.0314914696 0
0.0799999982 -0.0314914696 0
0.0766666681 -0.0314914696 0
0.0733333305 -0.0314914696 0
0.0700000003 -0.0314914696 0
0.0666666701 -0.0314914696 0
0.0633333325 -0.0314914696 0
0.0599999987 -0.0314914696 0
0.0566666685 -0.0314914696 0
0.0533333346 -0.0314914696 0
0.0500000007 -0.0314914696 0
0.0466666669 -0.0314914696 0
0.043333333 -0.0314914696 0
0.0399999991 -0.0314914696 0
0.0366666652 -0.0314914696 0
0.135000005 -0.0343782231 0
0.13166666 -0.0343782231 0
0.12833333 -0.0343782231 0
0.125 -0.0343782231 0
0.12166667 -0.0343782231 0
0.118333332 -0.0343782231 0
0.115000002 -0.0343782231 0
0.111666664 -0.0343782231 0
0.108333334 -0.0343782231 0
0.104999997 -0.0343782231 0
0.101666667 -0.0343782231 0
0.0983333364 -0.0343782231 0
0.0949999988 -0.0343782231 0
0.0916666687 -0.0343782231 0
0.088333331 -0.0343782231 0
0.0850000009 -0.0343782231 0
0.0816666633 -0.0343782231 0
0.0783333331 -0.0343782231 0
0.075000003 -0.0343782231 0
0.0716666654 -0.0343782231 0
0.0683333352 -0.0343782231 0
0.0649999976 -0.0343782231 0
0.0616666675 -0.0343782231 0
0.0583333336 -0.0343782231 0
0.0549999997 -0.0343782231 0
0.0516666658 -0.0343782231 0
0.0483333319 -0.0343782231 0
0.0450000018 -0.0343782231 0
0.0416666679 -0.0343782231 0
0.038333334 -0.0343782231 0
0.0350000001 -0.0343782231 0
0.13333334 -0.0372649729 0
0.129999995 -0.0372649729 0
0.126666665 -0.0372649729 0
0.123333335 -0.0372649729 0
0.119999997 -0.0372649729 0
0.116666667 -0.0372649729 0
0.113333337 -0.0372649729 0
0.109999999 -0.0372649729 0
0.106666669 -0.0372649729 0
0.103333332 -0.0372649729 0
0.100000001 -0.0372649729 0
0.0966666639 -0.0372649729 0
0.0933333337 -0.0372649729 0
0.0900000036 -0.0372649729 0
0.086666666 -0.0372649729 0
0.0833333358 -0.0372649729 0
0.0799999982 -0.0372649729 0
0.0766666681 -0.0372649729 0
0.0733333305 -0.0372649729 0
0.0700000003 -0.0372649729 0
0.0666666701 -0.0372649729 0
0.0633333325 -0.0372649729 0
0.0599999987 -0.0372649729 0
0.0566666685 -0.0372649729 0
0.0533333346 -0.0372649729 0
0.0500000007 -0.0372649729 0
0.0466666669 -0.0372649729 0
0.043333333 -0.0372649729 0
0.0399999991 -0.0372649729 0
0.0366666652 -0.0372649729 0
0.0333333351 -0.0372649729 0
0.13166666 -0.0401517227 0
0.12833333 -0.0401517227 0
0.125 -0.0401517227 0
0.12166667 -0.0401517227 0
0.118333332 -0.0401517227 0
0.115000002 -0.0401517227 0
0.111666664 -0.0401517227 0
[...]
POINT_DATA 961
SCALARS Temp float 1
LOOKUP_TABLE default
349.73099841677407
299.91351613407204
261.2780949994375
234.02614374967212
216.15905367559066
205.23416347129478
198.98096703663344
195.61592766292628
193.90528747027977
193.07976050435676
192.69976698356686
192.53218312609704
192.46108043643866
192.43195170888617
192.42039358419572
192.41594123518018
192.4142927142976
192.41377540888476
192.41391490366172
192.41510465523308
192.41935181355322
192.43303440031434
192.47444742865656
192.59205787596798
192.9035912365682
193.6685927135591
195.40002675763196
198.9944750514479
205.8173024298637
217.65478800607627
236.80221564130457
299.91353241232997
253.04505956960713
218.8033082533403
195.4071653948719
180.50441156235377
171.630808730657
166.67355681499228
164.06378027992244
162.7628881315145
162.14597250786696
161.86637071263868
161.74474210102977
161.69376401942654
161.67310636638524
161.66498941909998
161.66190053700655
161.66079685974748
161.66057181794616
161.66112461223736
161.6634876686845
161.67137180795925
161.69584940211354
161.76729674253608
161.96247447042077
162.45858810968204
163.62517934261
166.14966348870377
171.1563452578495
180.2337213377076
195.2826679643227
217.65480677697056
261.2780546996536
218.80329230190975
188.31912756038665
167.84120003187138
154.96567437177805
147.37421709952582
143.1634501180201
140.95745726688574
139.8611653410184
139.34210320450728
139.10697101078546
139.0046597431459
138.96174425249035
138.94433510588811
138.93748981352718
138.93489316886638
138.93401418879387
138.93402400946619
138.93517329718122
138.93938105894802
138.95281978218267
138.9930319096161
139.1059826589362
139.40234076794016
140.12468281641742
141.75169199298026
145.12286604301042
151.52575132264025
162.64604592710512
180.23371171743008
205.81731030254625
234.02609928244314
195.40714597129966
167.84120418416566
149.37684043382052
137.77192208955668
130.91868230035502
127.10593072617728
125.10069805756285
124.09985010724549
123.62385349816698
123.40727647234657
123.31264404914228
123.27279446729314
123.25657171483606
123.25017876721616
123.24776824675378
123.24702794554948
123.24732726425944
123.24935789147018
123.25624473602558
123.27738401389503
123.33827599758021
123.502695925633
123.91691767524203
124.88576524584454
126.98018729077802
131.1490506156518
138.7675357371557
151.52576416614963
171.15635754821702
198.99446684533078
216.15902021868115
180.50439815929855
154.9656696348363
137.77196471074058
126.90163256489924
120.4426558266473
116.82772446846256
114.91594116935873
113.95695001591255
113.4988383702222
113.2895951764729
113.19786336490195
113.15912568581851
113.14332007477107
113.1370863181684
113.13476385824809
113.13416311336464
113.13486290440233
113.1381138160425
113.14854911757027
113.17935721874989
113.26473571335139
113.4863986419717
114.02326381150891
115.23125434962081
117.74724703301484
122.58386715195059
131.14904522070788
145.12286246584205
166.14966097330208
195.4000331584052
205.23413350134754
171.6308322931132
147.37424814948392
130.9186580266522
120.44264700273803
114.18036553084215
110.65772888391018
108.78695371557583
107.84533000301218
107.39426868688697
107.1877864662538
107.09710121388144
107.05875005431423
107.04308747667234
107.03691769616053
107.03466396905404
107.03423723393219
107.03546543785792
107.04026547951088
107.05497133997176
107.09675564632354
107.20824783282322
107.48704240926249
108.13810159797406
109.55334479151311
112.40911102628567
117.7472454275239
126.98018831984238
141.75169866048276
163.62516026720687
193.66858477428696
198.9809700817244
166.67357234791362
143.1634849493746
127.1059020680937
116.82771484718042
110.65772702073424
107.17578542802389
105.32209615593028
104.38733606407975
103.93893091574637
103.73344406836259
103.6431217018178
103.60490137018257
103.5892892302357
103.58315557968238
103.58097638352555
103.580768805147
103.58264162907068
103.58923546111498
103.608607243208
103.66165703259638
103.79824333823105
104.12829065873711
104.8747857894144
106.45126775544506
109.55334277936178
115.23124954430875
124.88575773533198
140.12467987599095
162.45858546652434
192.90360039097484
195.61593928259933
164.06380119052898
140.9574102872908
125.10067430923769
114.91593851069251
108.78695885287476
105.32209512172444
103.47520306605547
102.54304135971233
102.09559955699805
101.89045824109942
101.80025788661331
101.76208159091837
101.74649184090369
101.74039038371727
101.73829854971775
101.738348037793
101.74094105263286
101.74942632708171
101.77342262087669
101.83693282767743
101.99528552156052
102.36677865650425
103.18515362238135
104.87478494491415
108.13810054933873
114.0232644297133
123.91691834780788
139.40232844764176
161.96245617442574
192.59204821516533
193.90529116129196
162.7629171129983
139.86112207151353
124.09983411169506
113.95695058292976
107.8453252946185
104.38733549411965
102.543043753606
101.61183179023764
101.16472709877523
100.95970229796863
100.86954234236669
100.83138210664373
100.81580707848032
100.8097399008634
100.80774691938262
100.80807418051506
100.8114023970484
100.82170379921698
100.84986160724114
100.9221712201146
101.09760684756753
101.49941363131471
102.36677937510488
104.12829052233353
107.4870416056644
113.48639766223846
123.50269237322537
139.10598602049313
161.76730262035755
192.4744657254007
193.07978996811076
162.14590956766082
139.34208314139264
123.62385130676317
113.49884795192187
107.39426828883137
103.9389335225935
102.09559933442559
101.16472684377955
100.71773608850211
100.51275037746484
100.42260412617023
100.38445186394829
100.36889044372593
100.36286012928402
100.3609706281353
100.36157313297697
100.36558681565758
100.37747638477636
100.40903890180832
100.48807017170964
100.67567460390003
101.09760642929449
101.99528529547437
103.79824331638524
107.20824768082922
113.26473593223525
123.3382627915457
138.993018890197
161.69583340979466
192.43302528994025
192.69982291041708
161.86632324640703
139.10696202589622
123.40728125849306
113.28958972085437
107.18778773637143
103.73344783649662
101.89045829867233
100.95970278540591
100.51275035772393
100.30777775402524
100.21763708048611
100.17949098430255
100.16394348944804
100.15795090257696
100.1561613301114
100.15701381536665
100.16161164445775
100.1747680568316
100.20886809920462
100.29257426709168
100.48807044983388
100.92217135639486
101.83693240214053
103.66165625461551
107.09675476410108
113.17935486557474
123.27738275316405
138.9528241283604
161.67138009745506
192.41933865294854
192.5321270148239
161.74471362896935
139.00466003046552
123.31265544562339
113.19785872122033
107.09710353786389
103.64312001268762
101.80025820949345
100.86954149210948
100.42260414140267
100.21763724558102
100.12750070235879
100.08936107735886
100.073828081518
100.06787172320318
100.0661712714717
100.06723214549936
100.07228551714533
100.08636541869839
100.12219275885543
100.20886828638173
100.40903906512386
100.8498614326933
101.7734234151443
103.60860873261372
107.05497489015151
113.14854597744885
123.25624028278514
138.93938193406635
161.66348890609666
192.415118424704
192.46105728424678
161.69376271290594
138.9617617266792
123.27278629582709
113.1591275352787
107.05875710716509
103.60490095043492
101.76208306782543
100.83138164623125
100.38445207393154
100.17949088624214
100.0893610271913
100.05123030283916
100.03571317649494
100.02979029167926
100.02816398188877
100.0293850097534
100.0347644489445
100.04946115932913
100.08636530946205
100.17476801501044
100.3774766171083
100.8217031516406
101.74942604640704
103.58923484017232
107.04026416944333
113.13811267164003
123.24935661191375
138.93517893229415
161.6611026244485
192.41391807663737
192.43193324662673
161.6731076002452
138.94435671137774
123.25656331667638
113.1433224808429
107.04308370832962
103.58928932735814
101.74649079471043
100.81580680159259
100.36889078322164
100.16394335550015
100.07382806672588
100.03571316636514
100.02021625270679
100.01432528187733
100.012758234406
100.01409403503126
100.01968882545341
100.03476443443928
100.07228554470825
100.16161161694995
100.36558695675379
100.81140233904492
101.74094184952592
103.58264334131547
107.03546368382752
113.13486016869147
123.24732349503934
138.93402463073608
161.66057548048582
192.41377503226482
192.42039418127652
161.66500841966632
138.93747853527154
123.2501789940684
113.13709632085336
107.03691653559908
103.5831583228718
101.74039005304576
100.80973986616628
100.36286005848795
100.15795089068625
100.06787175798068
100.02979028174103
100.01432528954736
100.00846963005267
100.0069514544777
100.00836634990102
100.014094027624
100.02938498653006
100.0672321046988
100.15701382475578
100.36157303212084
100.80807358828953
101.7383477549146
103.58076803295457
107.03423668705183
113.1341625601771
123.24702763630007
138.9340008909625
161.66079336823051
192.41428516334733
192.4159413554267
161.66192119998132
138.93488137260607
123.24776997256015
113.13475664994927
107.03466358212519
103.58097407899861
101.73829859654141
100.80774721880742
100.36097053019743
100.15616134444635
100.0661711861318
100.02816398273595
100.01275822181925
100.00695145444338
100.0054801806666
100.00695145729061
100.01275822616965
100.02816400849404
100.06617122408346
100.15616129104873
100.36097079523704
100.80774690324681
101.73829946310472
103.58097540432577
107.03466241138881
113.13476235113293
123.24776477424098
138.93489760924228
161.66189174043163
192.41594404939246
192.41431213008892
161.66077356418666
138.93401933154726
123.24704216124448
113.13416056492753
107.03424160223112
103.58076808739779
101.73834873709123
100.80807358336004
100.36157329279409
100.15701397710464
100.06723209834468
100.02938504008215
100.01409403038002
100.00836635258939
100.0069514595634
100.0084696348301
100.01432527413262
100.02979029024206
100.06787169555336
100.15795077401111
100.36286004790858
100.80973935540172
101.74038995956072
103.58315547204761
107.03691752519647
113.1370867160499
123.25016543904465
138.93748737744468
161.6649743163061
192.42038546594446
192.41380618453118
161.66055427182164
138.93403284322872
123.24731402578166
113.1348619420759
107.03546099598174
103.58264154402957
101.74094241356524
100.81140175493246
100.36558706675963
100.16161152816251
100.07228548455059
100.0347644236439
100.01968881820723
100.01409404015867
100.01275823657694
100.01432528358828
100.0202162630309
100.0357131811256
100.07382803995337
100.16394346687599
100.36889061200115
100.81580718535233
101.74649137162618
103.58928847826633
107.04308643732557
113.14331784922658
123.25657089785324
138.94432775381574
161.67309795262705
192.43195260438495
192.41388299464145
161.6611150704971
138.93518853038762
123.24934494045554
113.13811552262322
107.04026109239952
103.58923503634675
101.74942515949836
100.82170329329225
100.37747676038805
100.17476791196903
100.08636539424359
100.04946114536196
100.03476444096782
100.02938500857002
100.0281639807697
100.02979028719098
100.03571318595775
100.05123028778979
100.08936100908292
100.17949095427448
100.38445199949311
100.8313819472525
101.76208225550111
103.60490275654992
107.05875350636491
113.15912224605457
123.27279631081007
138.96174384405754
161.6937636927464
192.46108989492748
192.4150978978382
161.66349962389867
138.93936597849256
123.25624221634203
113.1485408148968
107.05497145966893
103.60860975171914
101.7734222494737
100.84986167590695
100.40903888101991
100.20886815754443
100.12219273416969
100.08636539948444
100.07228553143536
100.06723215365537
100.06617127263532
100.06787172662982
100.07382808645228
100.0893610631723
100.12750074672265
100.2176371565556
100.42260429507748
100.86954169044745
101.80025758530256
103.64312104781591
107.09709994928762
113.19786215373257
123.31263423790544
139.00465254087285
161.74473256205144
192.53218335975407
192.4193472942162
161.67138882299398
138.95280454608286
123.27738629603475
113.1793493463911
107.09675512232937
103.6616545615067
101.83693272779574
100.92217167902523
100.48807023712199
100.29257446449404
100.20886808194356
100.17476804138279
100.16161163886704
100.15701380522472
100.15616133165146
100.15795091685854
100.16394347838148
100.17949098121267
100.2176371072755
100.30777770582844
100.51275046755481
100.95970229714693
101.89045907574386
103.73344553868719
107.18778438553416
113.28959602430801
123.40727162392608
139.1069705870699
161.86637062815288
192.69976373783294
192.43302956431833
161.69580635608676
138.99302081526199
123.33825425923871
113.26473021232499
107.20824960691657
103.79824121470834
101.9952858312924
101.09760608662272
100.6756743508057
100.488070118322
100.40903885004357
100.37747642031938
100.3655868578811
100.36157313940927
100.36097062811974
100.36286012860987
100.36889043282011
100.38445188264119
100.42260408580125
100.51275045055581
100.71773614525534
101.1647264980659
102.09559982325851
103.938931633046
107.39427103893097
113.49883686744845
123.6238524575227
139.34211080277336
162.14598306795259
193.07977749009805
192.47449227051504
161.7672925579615
139.10600407949244
123.50269244238585
113.48640409107493
107.48704214967725
104.12829344989026
102.36678156680398
101.49941435609772
101.09760823676585
100.92217211856594
100.8498624373331
100.82170461998334
100.8114031865467
100.80807502431455
100.80774780061027
100.809740708873
100.81580793019072
100.83138294608736
100.86954310908966
100.95970310376178
101.16472751543782
101.61183263526192
102.54304268881106
104.38733350804546
107.84532838457305
113.9569440672865
124.09983996275963
139.86115704340503
162.76286138678344
193.90527010891606
192.59204090500273
161.96247948233696
139.4023295577923
123.91691883146257
114.02327395170624
108.13810117215455
104.87478895550899
103.18515533864196
102.36678017010209
101.99528722341896
101.83693443389025
101.77342442825453
101.7494282106622
101.74094279682285
101.73834974581779
101.73830024660498
101.74039207764775
101.74649356091167
101.762083283853
101.80025965571174
101.89045987529877
102.09560096975599
102.54304304425287
103.47520327873896
105.32209763180185
108.78695292804876
114.91593939929186
125.10069147257846
140.95745502938254
164.0637738477226
195.61592464160276
192.90358409294424
162.45860382675363
140.12467520162446
124.88576484355009
115.23124857418757
109.55334689666174
106.45127125392239
104.87478691230305
104.1282932247029
103.7982451771452
103.66165867880784
103.60860883721618
103.58923694039235
103.58264330217382
103.58077060386279
103.58097796142272
103.58315732326106
103.58929091934098
103.60490298011244
103.64312339917599
103.73344562618927
103.9389327425381
104.387337078869
105.32209733305166
107.17578997172464
110.65772713043411
116.82772386763446
127.10593107167226
143.16344665595562
166.67355324570002
198.9809721530107
193.66859223519046
163.62514513282815
141.75168759302943
126.98019444563072
117.7472405544771
112.40911316490508
109.55334408541505
108.13810098166135
107.48704226006129
107.20824752705802
107.0967558880763
107.05497190263794
107.04026565623474
107.03546549579708
107.034237241383
107.03466402177813
107.03691779121878
107.04308758794595
107.05875034665658
107.09710123782791
107.18778658732296
107.39426910644626
107.84532986731432
108.78695530446285
110.65772666057563
114.18036840598224
120.44266125634567
130.91869069323025
147.37422764159885
171.6308146065624
205.23413677342893
195.40003222710544
166.14963647104008
145.12285843146796
131.14903212050416
122.58386364409208
117.74724378707657
115.23124779311696
114.0232599997256
113.4863940078616
113.26473066101165
113.17935200038129
113.14854355467882
113.13810876672494
113.13485816539436
113.13415785906298
113.13475902584102
113.137081329997
113.1433149352514
113.1591206981483
113.19785837666217
113.28959030494579
113.49883306108246
113.95694555919967
114.91593856607751
116.82771960231115
120.44265694973551
126.90164615893029
137.77193010114775
154.96564431647656
180.50438280180418
216.15902529567208
198.9944768601387
171.15636882858266
151.5257950646486
138.76754909622326
131.14907190645408
126.98020344275999
124.88578094905783
123.91693368126543
123.50271142871233
123.33829257415302
123.27740129139539
123.25626121439899
123.24937407685576
123.24734330331776
123.24704419136319
123.24778451863206
123.25019509284608
123.25658838203793
123.27281053635231
123.31266040369871
123.40729297747608
123.62386943455338
124.09986656321875
125.1007119215707
127.10594653766339
130.91870285586364
137.77194972649713
149.37682239405441
167.84117648440767
195.40712012952227
234.02610474585956
205.81731957770924
180.2337429432031
162.64606076171057
151.525775513586
145.12288884621057
141.75170915629175
140.12470336456022
139.40236027872749
139.10600145875657
138.9930503476552
138.9528374072057
138.93939960195956
138.93519239317314
138.9340422966347
138.93403323051908
138.93491189534868
138.93750828206015
138.9443537219445
138.96176297067674
139.00467836478924
139.10698906957697
139.34212237810405
139.86118474747877
140.95747404689791
143.1634691858571
147.37424027989903
154.96565775975694
167.84118097393932
188.31910158564784
218.80326730399898
261.27805855278865
217.65480886271607
195.28269129052342
180.23372454851227
171.15635857857293
166.14967112742778
163.6251867063804
162.45859594777008
161.96248169983068
161.76730586523087
161.69585936014713
161.67138045831135
161.6634959317682
161.66113264130445
161.66058040686087
161.66080534233586
161.66190911281046
161.66499845129172
161.67311446511394
161.69377268531218
161.7447508411513
161.86637901385606
162.14598093853346
162.7628952587235
164.0637889804844
166.6735680574961
171.63082368506753
180.50438910998972
195.40713038625768
218.80326269998298
253.04501446845995
299.9134481714955
236.80223191172192
217.65478281852546
205.81730781622403
198.99447954574669
195.40002449927402
193.66859467270217
192.90359166411378
192.5920589653141
192.47444805120585
192.4330326436684
192.41935169337435
192.41510495754136
192.41391495259293
192.41377603210518
192.4142929345633
192.41594146597606
192.42039308763427
192.43195224413867
192.4610804475687
192.53218259273433
192.69976767372546
193.07976143497243
193.90528702466986
195.61592807967162
198.98096789624114
205.23413256277743
216.15902157845605
234.02609878079446
261.2780370113872
299.9134303577255
349.73059372254573
