# vtk DataFile Version 2.0
Unstructured Grid Example
ASCII
DATASET UNSTRUCTURED_GRID

POINTS 961 float
0.150000006 -0.00839745998 0
0.146666661 -0.00839745998 0
0.143333331 -0.00839745998 0
0.140000001 -0.00839745998 0
0.13666667 -0.00839745998 0
0.13333334 -0.00839745998 0
0.129999995 -0.00839745998 0
0.126666665 -0.00839745998 0
0.123333335 -0.00839745998 0
0.119999997 -0.00839745998 0
0.116666667 -0.00839745998 0
0.113333337 -0.00839745998 0
0.109999999 -0.00839745998 0
0.106666669 -0.00839745998 0
0.103333332 -0.00839745998 0
0.100000001 -0.00839745998 0
0.0966666639 -0.00839745998 0
0.0933333337 -0.00839745998 0
0.0900000036 -0.00839745998 0
0.086666666 -0.00839745998 0
0.0833333358 -0.00839745998 0
0.0799999982 -0.00839745998 0
0.0766666681 -0.00839745998 0
0.0733333305 -0.00839745998 0
0.0700000003 -0.00839745998 0
0.0666666701 -0.00839745998 0
0.0633333325 -0.00839745998 0
0.0599999987 -0.00839745998 0
0.0566666685 -0.00839745998 0
0.0533333346 -0.00839745998 0
0.0500000007 -0.00839745998 0
0.148333326 -0.0112842107 0
0.144999996 -0.0112842107 0
0.141666666 -0.0112842107 0
0.138333336 -0.0112842107 0
0.135000005 -0.0112842107 0
0.13166666 -0.0112842107 0
0.12833333 -0.0112842107 0
0.125 -0.0112842107 0
0.12166667 -0.0112842107 0
0.118333332 -0.0112842107 0
0.115000002 -0.0112842107 0
0.111666664 -0.0112842107 0
0.108333334 -0.0112842107 0
0.104999997 -0.0112842107 0
0.101666667 -0.0112842107 0
0.0983333364 -0.0112842107 0
0.0949999988 -0.0112842107 0
0.0916666687 -0.0112842107 0
0.088333331 -0.0112842107 0
0.0850000009 -0.0112842107 0
0.0816666633 -0.0112842107 0
0.0783333331 -0.0112842107 0
0.075000003 -0.0112842107 0
0.0716666654 -0.0112842107 0
0.0683333352 -0.0112842107 0
0.0649999976 -0.0112842107 0
0.0616666675 -0.0112842107 0
0.0583333336 -0.0112842107 0
0.0549999997 -0.0112842107 0
0.0516666658 -0.0112842107 0
0.0483333319 -0.0112842107 0
0.146666661 -0.0141709624 0
0.143333331 -0.0141709624 0
0.140000001 -0.0141709624 0
0.13666667 -0.0141709624 0
0.13333334 -0.0141709624 0
0.129999995 -0.0141709624 0
0.126666665 -0.0141709624 0
0.123333335 -0.0141709624 0
0.119999997 -0.0141709624 0
0.116666667 -0.0141709624 0
0.113333337 -0.0141709624 0
0.109999999 -0.0141709624 0
0.106666669 -0.0141709624 0
0.103333332 -0.0141709624 0
0.100000001 -0.0141709624 0
0.0966666639 -0.0141709624 0
0.0933333337 -0.0141709624 0
0.0900000036 -0.0141709624 0
0.086666666 -0.0141709624 0
0.0833333358 -0.0141709624 0
0.0799999982 -0.0141709624 0
0.0766666681 -0.0141709624 0
0.0733333305 -0.0141709624 0
0.0700000003 -0.0141709624 0
0.0666666701 -0.0141709624 0
0.0633333325 -0.0141709624 0
0.0599999987 -0.0141709624 0
0.0566666685 -0.0141709624 0
0.0533333346 -0.0141709624 0
0.0500000007 -0.0141709624 0
0.0466666669 -0.0141709624 0
0.144999996 -0.0170577131 0
0.141666666 -0.0170577131 0
0.138333336 -0.0170577131 0
0.135000005 -0.0170577131 0
0.13166666 -0.0170577131 0
0.12833333 -0.0170577131 0
0.125 -0.0170577131 0
0.12166667 -0.0170577131 0
0.118333332 -0.0170577131 0
0.115000002 -0.0170577131 0
0.111666664 -0.0170577131 0
0.108333334 -0.0170577131 0
0.104999997 -0.0170577131 0
0.101666667 -0.0170577131 0
0.0983333364 -0.0170577131 0
0.0949999988 -0.0170577131 0
0.0916666687 -0.0170577131 0
0.088333331 -0.0170577131 0
0.0850000009 -0.0170577131 0
0.0816666633 -0.0170577131 0
0.0783333331 -0.0170577131 0
0.075000003 -0.0170577131 0
0.0716666654 -0.0170577131 0
0.0683333352 -0.0170577131 0
0.0649999976 -0.0170577131 0
0.0616666675 -0.0170577131 0
0.0583333336 -0.0170577131 0
0.0549999997 -0.0170577131 0
0.0516666658 -0.0170577131 0
0.0483333319 -0.0170577131 0
0.0450000018 -0.0170577131 0
0.143333331 -0.0199444648 0
0.140000001 -0.0199444648 0
0.13666667 -0.0199444648 0
0.13333334 -0.0199444648 0
0.129999995 -0.0199444648 0
0.126666665 -0.0199444648 0
0.123333335 -0.0199444648 0
0.119999997 -0.0199444648 0
0.116666667 -0.0199444648 0
0.113333337 -0.0199444648 0
0.109999999 -0.0199444648 0
0.106666669 -0.0199444648 0
0.103333332 -0.0199444648 0
0.100000001 -0.0199444648 0
0.0966666639 -0.0199444648 0
0.0933333337 -0.0199444648 0
0.0900000036 -0.0199444648 0
0.086666666 -0.0199444648 0
0.0833333358 -0.0199444648 0
0.0799999982 -0.0199444648 0
0.0766666681 -0.0199444648 0
0.0733333305 -0.0199444648 0
0.0700000003 -0.0199444648 0
0.0666666701 -0.0199444648 0
0.0633333325 -0.0199444648 0
0.0599999987 -0.0199444648 0
0.0566666685 -0.0199444648 0
0.0533333346 -0.0199444648 0
0.0500000007 -0.0199444648 0
0.0466666669 -0.0199444648 0
0.043333333 -0.0199444648 0
0.141666666 -0.0228312165 0
0.138333336 -0.0228312165 0
0.135000005 -0.0228312165 0
0.13166666 -0.0228312165 0
0.12833333 -0.0228312165 0
0.125 -0.0228312165 0
0.12166667 -0.0228312165 0
0.118333332 -0.0228312165 0
0.115000002 -0.0228312165 0
0.111666664 -0.0228312165 0
0.108333334 -0.0228312165 0
0.104999997 -0.0228312165 0
0.101666667 -0.0228312165 0
0.0983333364 -0.0228312165 0
0.0949999988 -0.0228312165 0
0.0916666687 -0.0228312165 0
0.088333331 -0.0228312165 0
0.0850000009 -0.0228312165 0
0.0816666633 -0.0228312165 0
0.0783333331 -0.0228312165 0
0.075000003 -0.0228312165 0
0.0716666654 -0.0228312165 0
0.0683333352 -0.0228312165 0
0.0649999976 -0.0228312165 0
0.0616666675 -0.0228312165 0
0.0583333336 -0.0228312165 0
0.0549999997 -0.0228312165 0
0.0516666658 -0.0228312165 0
0.0483333319 -0.0228312165 0
0.0450000018 -0.0228312165 0
0.0416666679 -0.0228312165 0
0.140000001 -0.0257179681 0
0.13666667 -0.0257179681 0
0.13333334 -0.0257179681 0
0.129999995 -0.0257179681 0
0.126666665 -0.0257179681 0
0.123333335 -0.0257179681 0
0.119999997 -0.0257179681 0
0.116666667 -0.0257179681 0
0.113333337 -0.0257179681 0
0.109999999 -0.0257179681 0
0.106666669 -0.0257179681 0
0.103333332 -0.0257179681 0
0.100000001 -0.0257179681 0
0.0966666639 -0.0257179681 0
0.0933333337 -0.0257179681 0
0.0900000036 -0.0257179681 0
0.086666666 -0.0257179681 0
0.0833333358 -0.0257179681 0
0.0799999982 -0.0257179681 0
0.0766666681 -0.0257179681 0
0.0733333305 -0.0257179681 0
0.0700000003 -0.0257179681 0
0.0666666701 -0.0257179681 0
0.0633333325 -0.0257179681 0
0.0599999987 -0.0257179681 0
0.0566666685 -0.0257179681 0
0.0533333346 -0.0257179681 0
0.0500000007 -0.0257179681 0
0.0466666669 -0.0257179681 0
0.043333333 -0.0257179681 0
0.0399999991 -0.0257179681 0
0.138333336 -0.0286047198 0
0.135000005 -0.0286047198 0
0.13166666 -0.0286047198 0
0.12833333 -0.0286047198 0
0.125 -0.0286047198 0
0.12166667 -0.0286047198 0
0.118333332 -0.0286047198 0
0.115000002 -0.0286047198 0
0.111666664 -0.0286047198 0
0.108333334 -0.0286047198 0
0.104999997 -0.0286047198 0
0.101666667 -0.0286047198 0
0.0983333364 -0.0286047198 0
0.0949999988 -0.0286047198 0
0.0916666687 -0.0286047198 0
0.088333331 -0.0286047198 0
0.0850000009 -0.0286047198 0
0.0816666633 -0.0286047198 0
0.0783333331 -0.0286047198 0
0.075000003 -0.0286047198 0
0.0716666654 -0.0286047198 0
0.0683333352 -0.0286047198 0
0.0649999976 -0.0286047198 0
0.0616666675 -0.0286047198 0
0.0583333336 -0.0286047198 0
0.0549999997 -0.0286047198 0
0.0516666658 -0.0286047198 0
0.0483333319 -0.0286047198 0
0.0450000018 -0.0286047198 0
0.0416666679 -0.0286047198 0
0.038333334 -0.0286047198 0
0.13666667 -0.0314914696 0
0.13333334 -0.0314914696 0
0.129999995 -0.0314914696 0
0.126666665 -0.0314914696 0
0.123333335 -0.0314914696 0
0.119999997 -0.0314914696 0
0.116666667 -0.0314914696 0
0.113333337 -0.0314914696 0
0.109999999 -0.0314914696 0
0.106666669 -0.0314914696 0
0.103333332 -0.0314914696 0
0.100000001 -0.0314914696 0
0.0966666639 -0.0314914696 0
0.0933333337 -0.0314914696 0
0.0900000036 -0.0314914696 0
0.086666666 -0.0314914696 0
0.0833333358 -0.0314914696 0
0.0799999982 -0.0314914696 0
0.0766666681 -0.0314914696 0
0.0733333305 -0.0314914696 0
0.0700000003 -0.0314914696 0
0.0666666701 -0.0314914696 0
0.0633333325 -0.0314914696 0
0.0599999987 -0.0314914696 0
0.0566666685 -0.0314914696 0
0.0533333346 -0.0314914696 0
0.0500000007 -0.0314914696 0
0.0466666669 -0.0314914696 0
0.043333333 -0.0314914696 0
0.0399999991 -0.0314914696 0
0.0366666652 -0.0314914696 0
0.135000005 -0.0343782231 0
0.13166666 -0.0343782231 0
0.12833333 -0.0343782231 0
0.125 -0.0343782231 0
0.12166667 -0.0343782231 0
0.118333332 -0.0343782231 0
0.115000002 -0.0343782231 0
0.111666664 -0.0343782231 0
0.108333334 -0.0343782231 0
0.104999997 -0.0343782231 0
0.101666667 -0.0343782231 0
0.0983333364 -0.0343782231 0
0.0949999988 -0.0343782231 0
0.0916666687 -0.0343782231 0
0.088333331 -0.0343782231 0
0.0850000009 -0.0343782231 0
0.0816666633 -0.0343782231 0
0.0783333331 -0.0343782231 0
0.075000003 -0.0343782231 0
0.0716666654 -0.0343782231 0
0.0683333352 -0.0343782231 0
0.0649999976 -0.0343782231 0
0.0616666675 -0.0343782231 0
0.0583333336 -0.0343782231 0
0.0549999997 -0.0343782231 0
0.0516666658 -0.0343782231 0
0.0483333319 -0.0343782231 0
0.0450000018 -0.0343782231 0
0.0416666679 -0.0343782231 0
0.038333334 -0.0343782231 0
0.0350000001 -0.0343782231 0
0.13333334 -0.0372649729 0
0.129999995 -0.0372649729 0
0.126666665 -0.0372649729 0
0.123333335 -0.0372649729 0
0.119999997 -0.0372649729 0
0.116666667 -0.0372649729 0
0.113333337 -0.0372649729 0
0.109999999 -0.0372649729 0
0.106666669 -0.0372649729 0
0.103333332 -0.0372649729 0
0.100000001 -0.0372649729 0
0.0966666639 -0.0372649729 0
0.0933333337 -0.0372649729 0
0.0900000036 -0.0372649729 0
0.086666666 -0.0372649729 0
0.0833333358 -0.0372649729 0
0.0799999982 -0.0372649729 0
0.0766666681 -0.0372649729 0
0.0733333305 -0.0372649729 0
0.0700000003 -0.0372649729 0
0.0666666701 -0.0372649729 0
0.0633333325 -0.0372649729 0
0.0599999987 -0.0372649729 0
0.0566666685 -0.0372649729 0
0.0533333346 -0.0372649729 0
0.0500000007 -0.0372649729 0
0.0466666669 -0.0372649729 0
0.043333333 -0.0372649729 0
0.0399999991 -0.0372649729 0
0.0366666652 -0.0372649729 0
0.0333333351 -0.0372649729 0
0.13166666 -0.0401517227 0
0.12833333 -0.0401517227 0
0.125 -0.0401517227 0
0.12166667 -0.0401517227 0
0.118333332 -0.0401517227 0
0.115000002 -0.0401517227 0
0.111666664 -0.0401517227 0
[...]
POINT_DATA 961
SCALARS Temp float 1
LOOKUP_TABLE default
398.7473970725249
349.88888196441906
309.4850621243724
278.2144997569629
255.20386642387308
239.08639479400722
228.33051500211457
221.48362853877603
217.31956271546755
214.8956574941111
213.54242925243312
212.81628400966633
212.44093976541998
212.2536519507144
212.16328728087402
212.1211665010944
212.10254870668996
212.0958596881956
212.0973021662669
212.10945817144298
212.14383815020224
212.22868771543153
212.4247709685902
212.85259899573055
213.73341520312323
215.44183975619123
218.5593932925339
223.9078796929448
232.53704434953858
245.65539043520732
264.7751464428383
349.88889709454327
302.92088890118896
265.73351883442564
237.6059083173278
217.3454198430391
203.44072555331798
194.34083479125104
188.6545003769145
185.25627781517267
183.3104124756811
182.24060893162985
181.67468138808215
181.38600578578206
181.24373557583922
181.17592475473776
181.1448350277245
181.13177615045947
181.12872331055055
181.1346973709469
181.15611539025892
181.21167522385326
181.34380244920607
181.63988290815664
182.2665169888751
183.51748998849325
185.86957306477456
190.03009085051295
196.95083938165732
207.78184200731803
223.76081710946576
245.65540992628559
309.4850174131969
265.73349889106333
231.6205638804918
206.21082151761377
188.1458492402689
175.88720647495305
167.94177489584845
163.01712550831928
160.09385224829907
158.42906448941466
157.51773222438536
157.03723679840292
156.7927544218129
156.67250692603514
156.6153536283372
156.58944024783244
156.57933825506225
156.57924402395295
156.59069912794757
156.62455614026766
156.70829287954538
156.90119780770468
157.32074694387614
158.1825715409179
159.85232295417273
162.89951572106847
168.1327986334643
176.5880316347218
189.44030876015165
207.78183256265035
232.537054020731
278.2144458790978
237.60588071235173
206.2108231882008
182.98712895393717
166.56009867325906
155.45006485130958
148.26200922418428
143.80911620317758
141.1645326372101
139.65648397591548
138.82937679307435
138.39228183458044
138.16931903682232
138.0593994134556
138.00714076989794
137.98375412950352
137.97564965005296
137.9787101010342
137.99712132716675
138.04688367015075
138.16553378007086
138.43080811039655
138.99122990166865
140.10970420707093
142.21578386466123
145.95319909428295
152.19935009411992
162.02770291110537
176.588046598411
196.95085232116753
223.90787125716304
255.20381941943765
217.34539612203992
188.1458371254702
166.56015858759014
151.27912436261428
140.92361649782615
134.20479348802206
130.02854555368728
127.53916901006163
126.11425698443212
125.32982105200757
124.91378570051741
124.70086167961415
124.59561990532738
124.54561487331446
124.52366553837506
124.5173712572759
124.52416573060206
124.55111823779525
124.61990832390897
124.77873080779806
125.12380263680318
125.8328032478822
127.20980999221247
129.73507545024944
134.1040721386852
141.23204411216383
152.19934363364987
168.13279424346507
190.03008891632732
218.55939932354147
239.086349241213
203.44075774860397
175.88724907706828
155.4500355433449
140.92360528043673
131.03635788216542
124.59299042997915
120.57085319565239
118.16376202442838
116.78091616761229
116.01714851290984
115.61090406799707
115.40248850311305
115.29932825907893
115.25044699703926
115.22956896477187
115.22522146180995
115.23640186715808
115.27322975835428
115.36321316639518
115.56492908264929
115.99151202166397
116.84550360705032
118.4632527610366
121.36065994625464
126.26406910313361
134.10406951581498
145.9532003418724
162.8995226720578
185.869552386311
215.44183314593343
228.3305224091248
194.34085570138495
167.94181791397742
148.26197492287523
134.2047805354264
124.59298733974745
118.30332252178893
114.3630086070889
111.99758363997942
110.63511042726996
109.88094092696393
109.47907574275747
109.27262913919024
109.17041837191782
109.12221962157875
109.10234936403356
109.10017020873002
109.11625123714478
109.1637446463511
109.27568329725217
109.51991468275612
110.02369574669166
111.00877002958927
112.83414139172534
116.03767785163372
121.36065671164229
129.7350684824937
142.21577360265238
159.8523209443365
183.51748772351357
213.73342404652837
221.4836431410432
188.65452591906617
163.01707216512605
143.80908655515086
130.02854416980117
120.57086223011484
114.36300653475122
110.46421622926105
108.11900197831469
106.76600573436525
106.01612524379637
105.61615727000951
105.41056627685717
105.30884180390932
105.26117924027666
105.24235165999515
105.2425087635547
105.26372802812308
105.32195893077827
105.45505277270091
105.73843575676278
106.3100952813995
107.40515465823282
109.39672566346707
112.83413973595738
118.46325046291425
127.20981139665648
140.10970529074004
158.1825575243751
182.2664979649136
212.85258912681772
217.3195697558785
185.25631055990124
160.09380762328783
141.16451508242682
127.53917073877082
118.16375389907734
111.9975819347721
108.1190075358819
105.78322189277404
104.43447042898185
103.68644477971338
103.28728269924565
103.08208176457094
102.98066702506443
102.93350300702133
102.91575273953632
102.91828912742031
102.94454406337094
103.01285124716057
103.16492067715203
103.481839374623
104.10899232356456
105.28984950725643
107.40515618964673
111.00877030978015
116.84550284068972
125.83280194432693
138.99122583491675
157.32075060298416
181.6398895397608
212.42478970126623
214.89569272099263
183.31034867679242
158.4290422623391
139.65648091360663
126.11426894857512
116.78091528589695
110.635115062964
106.76600462535517
104.43446951317456
103.08755696810233
102.34031713838479
101.94150270636757
101.73650869183214
101.63534184553144
101.58866532594422
101.57198090043775
101.57679123370302
101.60765623490116
101.6847819556436
101.85271248600158
102.19638946102019
102.86579721821805
104.1089912675698
106.31009495992458
110.0236955664047
115.99151158006616
125.1238025357134
138.4307917822271
156.90118344300052
181.34378579202811
212.22867907046296
213.54248753523171
182.24055929447232
157.51772047145627
138.82938211069643
125.32981198814744
116.0171498328984
109.88094733315079
106.01612543692833
103.68644608738214
102.3403170471618
101.59341284054456
101.19476590491057
100.9899148006262
100.88897593141041
100.84277046039311
100.8270837803902
100.8339311695992
100.86874163659708
100.95307376584218
101.13337587182725
101.49697087649457
102.19639048685185
103.48183971136778
105.7384347758543
109.5199130803216
115.56492786267663
124.7787279848369
138.16553209803314
156.70829791204042
181.21168372297734
212.1438248503391
212.81622440730465
181.67464921331248
157.03723503066794
138.39229397759863
124.91377802382577
115.61090760566697
109.47907216704542
105.61615797224822
103.28728036575995
101.94150270847378
101.1947666317339
100.79623314071173
100.59151351755972
100.49079905721604
100.44503598142555
100.43023361756029
100.43879484180735
100.47676677200673
100.56660552900227
100.75592677581865
101.1333766235958
101.85271305484149
103.16492022282992
105.45505479003863
109.27568638742567
115.36321893841811
124.61990390847043
138.04687813191333
156.62455727253538
181.15611710084423
212.10947212303302
212.44091226225862
181.38600083396292
156.79277184471078
138.16930695102639
124.70086373203758
115.40249939232042
109.27262839603232
105.41056946486073
103.08208062384604
101.73650942060912
100.98991438485862
100.59151328134315
100.38695194409232
100.28647513561184
100.24112316693217
100.22707135562847
100.23699454048317
100.27734593493619
100.37112779692744
100.56660497606006
100.95307358164136
101.68478276041742
103.0128495146079
105.32195825394297
109.16374341930388
115.27322775816502
124.5511166785328
137.9971198194038
156.59070558976975
181.13467479164635
212.097305845137
212.2536299248305
181.24373466109063
156.6725296493681
138.05938834524582
124.59562347135511
115.29932180669927
109.17041876157457
105.30883940928315
102.98066630264276
101.63534296866369
100.88897541250059
100.49079902927427
100.28647507978408
100.18628320191706
100.14132941462621
100.12790531703531
100.13886454447683
100.18090859836761
100.2773458538591
100.47676691758205
100.86874155714283
101.60765673471909
102.94454390577164
105.26372985888057
109.11625455475212
115.23639900402009
124.52416190515692
137.97870545229227
156.57924518070607
181.12872706708208
212.09585899705212
212.16328652446978
181.17594383711165
156.6153405079982
138.0071414260318
124.54562901776711
115.25044546795591
109.12222479986058
105.26117867722087
102.93350296627267
101.58866508733895
100.84277044456736
100.445036149452
100.24112311054293
100.14132947227463
100.09680774816673
100.08393019121529
100.09566646690287
100.1388644956157
100.23699440631361
100.43879464735564
100.83393119569376
101.57679088110466
102.91828750341344
105.24250811980372
109.10016886183766
115.22522058414829
124.51737051051677
137.97564931421158
156.57932286895624
181.13177237418907
212.10254051624818
212.12116704388396
181.1448569869168
156.58942796116244
137.98375707371733
124.52365508313947
115.22956873053859
109.10234489502746
105.24235187886994
102.91575356528828
101.57198064209572
100.82708386628674
100.4302332040806
100.22707137159504
100.12790523001847
100.08393019239516
100.07158626972199
100.08393021496465
100.12790526387101
100.22707151120294
100.43023338802378
100.82708364516033
101.57198146423762
102.91575271463815
105.2423537563387
109.10234745616646
115.22956646580393
124.52366315383452
137.98374994047592
156.58944471425195
181.14482547174802
212.12116871431297
212.10257012202496
181.13175293030147
156.5793446791823
137.97566752850082
124.51736807685613
115.22522859245753
109.10016907831569
105.24251052056827
102.91828749707847
101.57679180940507
100.8339318200234
100.4387946377494
100.23699473180515
100.13886452164127
100.0956664893337
100.08393023227292
100.09680778474278
100.14132936597258
100.24112316450437
100.44503585923599
100.8427699672926
101.58866508024902
102.93350149981225
105.26117839842442
109.12221932027784
115.25044669044902
124.54561526865481
138.00712379131815
156.61535082609456
181.17590845857296
212.163279143873
212.0958912065477
181.12870573628686
156.57925439023384
137.9786931997462
124.52416471561129
115.23639455169356
109.11625127087189
105.26373114166317
102.9445424074357
101.60765711205467
100.8687412014704
100.47676664809163
100.2773457820203
100.1809085479568
100.13886458434789
100.12790532930963
100.14132942823427
100.18628326940105
100.2864751665823
100.49079889775518
100.88897583168153
101.63534241336818
102.98066728995131
105.30884072951642
109.1704169097544
115.29932642037282
124.5956169493987
138.05939785224396
156.67249876801048
181.24372692046305
212.25365310824958
212.09726937363902
181.13468721511882
156.59071582162832
137.99710552466823
124.55112065904349
115.27322289021349
109.16374402954533
105.32195621338859
103.01284997418625
101.68478321978056
100.95307317903631
100.56660538513243
100.37112771289064
100.27734588106374
100.23699453268608
100.22707135037126
100.241123128053
100.28647519424844
100.38695185852008
100.5915131815112
100.9899146665135
101.73650913141825
103.08208141734276
105.41056767905795
109.27263179701389
115.40249393200153
124.70085679060001
138.16932161838272
156.7927540122055
181.3860058819439
212.44095005544753
212.10945085582554
181.1561279279934
156.62453905449385
138.04688117724442
124.61989670070123
115.3632136356322
109.27568833640998
105.45505227876485
103.16492088895794
101.85271243230082
101.13337614353992
100.75592663849282
100.56660542226145
100.47676686936315
100.43879486424618
100.43023362123678
100.44503601013488
100.49079909162405
100.5915134390157
100.79623334232453
101.19476628524005
101.94150319825863
103.28728097166142
105.61615657229491
109.47907462952492
115.61090244907604
124.91378388463758
138.3922700266589
157.03722939545378
181.67467256479756
212.81628468061942
212.1438340104595
181.21169312446494
156.70827687194105
138.1655367696999
124.77872050511304
115.56492877959879
109.51990978423578
105.73843559500874
103.48184054351921
102.1963897931146
101.4969716493434
101.13337575295107
100.95307367381338
100.86874160931569
100.83393112726654
100.82708378189454
100.84277051518178
100.88897587521154
100.98991476091925
101.1947660385896
101.59341264172119
102.34031743108689
103.68644490361035
106.01612737744873
109.88094356224929
116.01714517141396
125.32982284218346
138.82937143948632
157.5177316790265
182.2406090545286
213.5424260389792
212.22868473487762
181.34375858530132
156.901186668548
138.43078134778787
125.12379482520443
115.99151463085231
110.02369172512537
106.31009614671561
104.10899028526245
102.8657964372539
102.19638922355743
101.8527122749254
101.68478215307009
101.607656317744
101.5767912433488
101.57198091058066
101.58866532964846
101.63534180012371
101.73650879034761
101.94150251510224
102.34031741691338
103.0875572531045
104.43446867783956
106.76600617731539
110.63511200170909
116.78092026391732
126.11425426189042
139.65648244357382
158.42907264834864
183.31042367194726
214.89567420817912
212.42481747389036
181.63988058667857
157.32077144588575
138.99122676088243
125.83281193411459
116.84550419784476
111.00877645087002
107.40516132795491
105.28985144758259
104.10899636809373
103.48184173266779
103.1649229119644
103.0128535055001
102.9445462326979
102.91829144723815
102.91575511207061
102.93350520844217
102.98066929094912
103.08208403471157
103.28728467750138
103.68644693848763
104.43447143540004
105.78322431300995
108.1190058252339
111.9975789980152
118.16376040159352
127.53916182766983
141.16452212106938
160.0938454542397
185.25624923382378
217.31954481677545
212.85258217726727
182.26652309447368
158.1825595468049
140.10970711553227
127.2098254326865
118.46325244390295
112.83414772745463
109.39672933474289
107.40515802178838
106.31009910531523
105.73843939293002
105.45505708030203
105.32196307957442
105.26373196116849
105.24251264528883
105.2423555022351
105.2611830775587
105.30884569739551
105.41056999036768
105.61616121918485
106.01612892736502
106.76600863428187
108.11900591998005
110.46421680204035
114.36301162534082
120.57085310240782
130.02854519459876
143.80910730178292
163.0171229892271
188.6544936501124
221.48362703613583
213.7334085620423
183.5175068714377
159.85231652199036
142.21578325645987
129.73506748022365
121.36066373530367
116.03768422406067
112.83414335331645
111.00877559015683
110.02369894864152
109.51991768565539
109.27568632350686
109.16374747932522
109.11625443882892
109.10017353562382
109.10235238849776
109.12222286594057
109.17042155608357
109.27263214099423
109.47907894937173
109.88094363541298
110.63511411718916
111.99758516269698
114.36301021938993
118.30333089739092
124.59298635775028
134.20479184385368
148.2620093553788
167.94177111161127
194.3408325518568
228.33052436089167
215.44184108693992
185.86953697053747
162.89951080093985
145.9532075367271
134.10406298551348
126.26407245699681
121.36065829429941
118.46325132435875
116.84550313023772
115.99151140248485
115.5649297304947
115.36321375969843
115.2732299466305
115.23640193555791
115.2252214462119
115.2295690440344
115.25044711931486
115.29932834662041
115.40248891058006
115.61090419291752
116.01714854474284
116.78091715322263
118.1637614514288
120.57085620667512
124.59298508846989
131.03636057182948
140.92362305714718
155.45007559837987
175.88722014910874
203.4407348172126
239.08635123506127
218.5593972617011
190.03006321456277
168.13278911437035
152.19932686151682
141.23203945905888
134.10406774261799
129.7350656236632
127.20980565719928
125.83279601725268
125.12379515222592
124.77872333592855
124.61990048081395
124.5511110823085
124.52415881899927
124.51736384152575
124.52365855080083
124.54560773555356
124.59561260015309
124.70085460501528
124.91377851426277
125.32981452406565
126.11424932590583
127.5391622667811
130.02854337892327
134.20478532607277
140.92361730256428
151.2791414797541
166.56010925521065
188.14580118688392
217.3453730377655
255.20381832255302
223.9078832657605
196.95086624106807
176.58808149366638
162.0277192153365
152.1993770793247
145.95321868861592
142.2158031069559
140.10972419510102
138.99124941658306
138.43082939676913
138.16555507612642
138.04690429122314
137.99714170376635
137.97873031281134
137.97567009816055
137.98377457190566
138.00716122834882
138.05942023021586
138.16933929853644
138.3923021664832
138.829397555349
139.6565033515226
141.16455352313145
143.80913038017192
148.26202704205488
155.45009038265428
166.56013565645287
182.987101902266
206.21078892086632
237.60585217455287
278.214450178109
232.5370645729723
207.78186539123706
189.44032470780988
176.58805940221734
168.13282515266994
162.89953460405496
159.8523479896077
158.18259291056077
157.32076783300926
156.90121857345073
156.70831295141144
156.6245771526333
156.59072050072743
156.5792647404944
156.57935959250358
156.5894613184963
156.61537446959227
156.67252790837156
156.7927753804848
157.03725793964176
157.51775224102062
158.42908515581297
160.09387485589005
163.0171419850088
167.94179541070864
175.88723471177536
188.14581714194728
206.21079037474576
231.62052880997027
265.7334671770914
309.4850155395667
245.65541261904661
223.7608406495409
207.78184485147455
196.9508542499859
190.0300978405726
185.8695799216072
183.5174978104403
182.2665244035845
181.63989275955572
181.34381227202908
181.21168406610045
181.15612396767338
181.13470575020628
181.12873216045136
181.13178490317037
181.14484383830575
181.1759339673577
181.24374406219056
181.38601461718582
181.67469053579026
182.2406170996003
183.31042161001008
185.25628214684724
188.65450739404034
194.3408468522606
203.44074528557636
217.34538230772677
237.6058582842692
265.7334606085026
302.92083277572914
349.88880307897375
264.7751628595294
245.6553848932646
232.53705092131625
223.90788527589922
218.55939039083535
215.44184370914556
213.7334150138997
212.85259949130383
212.42477127501274
212.2286861858605
212.1438380685234
212.10945831418397
212.0973021263432
212.0958600901894
212.10254879568936
212.12116659172003
212.1632868339229
212.25365223150138
212.440939866991
212.81628318236307
213.54242916479095
214.895659114403
217.31955985458387
221.4836281059346
228.3305186381054
239.08634594443586
255.20381823065043
278.2144409300783
309.4849919683213
349.88878517507993
398.7469856123586
