# vtk DataFile Version 2.0
Unstructured Grid Example
ASCII
DATASET UNSTRUCTURED_GRID

POINTS 961 float
0.150000006 -0.00839745998 0
0.146666661 -0.00839745998 0
0.143333331 -0.00839745998 0
0.140000001 -0.00839745998 0
0.13666667 -0.00839745998 0
0.13333334 -0.00839745998 0
0.129999995 -0.00839745998 0
0.126666665 -0.00839745998 0
0.123333335 -0.00839745998 0
0.119999997 -0.00839745998 0
0.116666667 -0.00839745998 0
0.113333337 -0.00839745998 0
0.109999999 -0.00839745998 0
0.106666669 -0.00839745998 0
0.103333332 -0.00839745998 0
0.100000001 -0.00839745998 0
0.0966666639 -0.00839745998 0
0.0933333337 -0.00839745998 0
0.0900000036 -0.00839745998 0
0.086666666 -0.00839745998 0
0.0833333358 -0.00839745998 0
0.0799999982 -0.00839745998 0
0.0766666681 -0.00839745998 0
0.0733333305 -0.00839745998 0
0.0700000003 -0.00839745998 0
0.0666666701 -0.00839745998 0
0.0633333325 -0.00839745998 0
0.0599999987 -0.00839745998 0
0.0566666685 -0.00839745998 0
0.0533333346 -0.00839745998 0
0.0500000007 -0.00839745998 0
0.148333326 -0.0112842107 0
0.144999996 -0.0112842107 0
0.141666666 -0.0112842107 0
0.138333336 -0.0112842107 0
0.135000005 -0.0112842107 0
0.13166666 -0.0112842107 0
0.12833333 -0.0112842107 0
0.125 -0.0112842107 0
0.12166667 -0.0112842107 0
0.118333332 -0.0112842107 0
0.115000002 -0.0112842107 0
0.111666664 -0.0112842107 0
0.108333334 -0.0112842107 0
0.104999997 -0.0112842107 0
0.101666667 -0.0112842107 0
0.0983333364 -0.0112842107 0
0.0949999988 -0.0112842107 0
0.0916666687 -0.0112842107 0
0.088333331 -0.0112842107 0
0.0850000009 -0.0112842107 0
0.0816666633 -0.0112842107 0
0.0783333331 -0.0112842107 0
0.075000003 -0.0112842107 0
0.0716666654 -0.0112842107 0
0.0683333352 -0.0112842107 0
0.0649999976 -0.0112842107 0
0.0616666675 -0.0112842107 0
0.0583333336 -0.0112842107 0
0.0549999997 -0.0112842107 0
0.0516666658 -0.0112842107 0
0.0483333319 -0.0112842107 0
0.146666661 -0.0141709624 0
0.143333331 -0.0141709624 0
0.140000001 -0.0141709624 0
0.13666667 -0.0141709624 0
0.13333334 -0.0141709624 0
0.129999995 -0.0141709624 0
0.126666665 -0.0141709624 0
0.123333335 -0.0141709624 0
0.119999997 -0.0141709624 0
0.116666667 -0.0141709624 0
0.113333337 -0.0141709624 0
0.109999999 -0.0141709624 0
0.106666669 -0.0141709624 0
0.103333332 -0.0141709624 0
0.100000001 -0.0141709624 0
0.0966666639 -0.0141709624 0
0.0933333337 -0.0141709624 0
0.0900000036 -0.0141709624 0
0.086666666 -0.0141709624 0
0.0833333358 -0.0141709624 0
0.0799999982 -0.0141709624 0
0.0766666681 -0.0141709624 0
0.0733333305 -0.0141709624 0
0.0700000003 -0.0141709624 0
0.0666666701 -0.0141709624 0
0.0633333325 -0.0141709624 0
0.0599999987 -0.0141709624 0
0.0566666685 -0.0141709624 0
0.0533333346 -0.0141709624 0
0.0500000007 -0.0141709624 0
0.0466666669 -0.0141709624 0
0.144999996 -0.0170577131 0
0.141666666 -0.0170577131 0
0.138333336 -0.0170577131 0
0.135000005 -0.0170577131 0
0.13166666 -0.0170577131 0
0.12833333 -0.0170577131 0
0.125 -0.0170577131 0
0.12166667 -0.0170577131 0
0.118333332 -0.0170577131 0
0.115000002 -0.0170577131 0
0.111666664 -0.0170577131 0
0.108333334 -0.0170577131 0
0.104999997 -0.0170577131 0
0.101666667 -0.0170577131 0
0.0983333364 -0.0170577131 0
0.0949999988 -0.0170577131 0
0.0916666687 -0.0170577131 0
0.088333331 -0.0170577131 0
0.0850000009 -0.0170577131 0
0.0816666633 -0.0170577131 0
0.0783333331 -0.0170577131 0
0.075000003 -0.0170577131 0
0.0716666654 -0.0170577131 0
0.0683333352 -0.0170577131 0
0.0649999976 -0.0170577131 0
0.0616666675 -0.0170577131 0
0.0583333336 -0.0170577131 0
0.0549999997 -0.0170577131 0
0.0516666658 -0.0170577131 0
0.0483333319 -0.0170577131 0
0.0450000018 -0.0170577131 0
0.143333331 -0.0199444648 0
0.140000001 -0.0199444648 0
0.13666667 -0.0199444648 0
0.13333334 -0.0199444648 0
0.129999995 -0.0199444648 0
0.126666665 -0.0199444648 0
0.123333335 -0.0199444648 0
0.119999997 -0.0199444648 0
0.116666667 -0.0199444648 0
0.113333337 -0.0199444648 0
0.109999999 -0.0199444648 0
0.106666669 -0.0199444648 0
0.103333332 -0.0199444648 0
0.100000001 -0.0199444648 0
0.0966666639 -0.0199444648 0
0.0933333337 -0.0199444648 0
0.0900000036 -0.0199444648 0
0.086666666 -0.0199444648 0
0.0833333358 -0.0199444648 0
0.0799999982 -0.0199444648 0
0.0766666681 -0.0199444648 0
0.0733333305 -0.0199444648 0
0.0700000003 -0.0199444648 0
0.0666666701 -0.0199444648 0
0.0633333325 -0.0199444648 0
0.0599999987 -0.0199444648 0
0.0566666685 -0.0199444648 0
0.0533333346 -0.0199444648 0
0.0500000007 -0.0199444648 0
0.0466666669 -0.0199444648 0
0.043333333 -0.0199444648 0
0.141666666 -0.0228312165 0
0.138333336 -0.0228312165 0
0.135000005 -0.0228312165 0
0.13166666 -0.0228312165 0
0.12833333 -0.0228312165 0
0.125 -0.0228312165 0
0.12166667 -0.0228312165 0
0.118333332 -0.0228312165 0
0.115000002 -0.0228312165 0
0.111666664 -0.0228312165 0
0.108333334 -0.0228312165 0
0.104999997 -0.0228312165 0
0.101666667 -0.0228312165 0
0.0983333364 -0.0228312165 0
0.0949999988 -0.0228312165 0
0.0916666687 -0.0228312165 0
0.088333331 -0.0228312165 0
0.0850000009 -0.0228312165 0
0.0816666633 -0.0228312165 0
0.0783333331 -0.0228312165 0
0.075000003 -0.0228312165 0
0.0716666654 -0.0228312165 0
0.0683333352 -0.0228312165 0
0.0649999976 -0.0228312165 0
0.0616666675 -0.0228312165 0
0.0583333336 -0.0228312165 0
0.0549999997 -0.0228312165 0
0.0516666658 -0.0228312165 0
0.0483333319 -0.0228312165 0
0.0450000018 -0.0228312165 0
0.0416666679 -0.0228312165 0
0.140000001 -0.0257179681 0
0.13666667 -0.0257179681 0
0.13333334 -0.0257179681 0
0.129999995 -0.0257179681 0
0.126666665 -0.0257179681 0
0.123333335 -0.0257179681 0
0.119999997 -0.0257179681 0
0.116666667 -0.0257179681 0
0.113333337 -0.0257179681 0
0.109999999 -0.0257179681 0
0.106666669 -0.0257179681 0
0.103333332 -0.0257179681 0
0.100000001 -0.0257179681 0
0.0966666639 -0.0257179681 0
0.0933333337 -0.0257179681 0
0.0900000036 -0.0257179681 0
0.086666666 -0.0257179681 0
0.0833333358 -0.0257179681 0
0.0799999982 -0.0257179681 0
0.0766666681 -0.0257179681 0
0.0733333305 -0.0257179681 0
0.0700000003 -0.0257179681 0
0.0666666701 -0.0257179681 0
0.0633333325 -0.0257179681 0
0.0599999987 -0.0257179681 0
0.0566666685 -0.0257179681 0
0.0533333346 -0.0257179681 0
0.0500000007 -0.0257179681 0
0.0466666669 -0.0257179681 0
0.043333333 -0.0257179681 0
0.0399999991 -0.0257179681 0
0.138333336 -0.0286047198 0
0.135000005 -0.0286047198 0
0.13166666 -0.0286047198 0
0.12833333 -0.0286047198 0
0.125 -0.0286047198 0
0.12166667 -0.0286047198 0
0.118333332 -0.0286047198 0
0.115000002 -0.0286047198 0
0.111666664 -0.0286047198 0
0.108333334 -0.0286047198 0
0.104999997 -0.0286047198 0
0.101666667 -0.0286047198 0
0.0983333364 -0.0286047198 0
0.0949999988 -0.0286047198 0
0.0916666687 -0.0286047198 0
0.088333331 -0.0286047198 0
0.0850000009 -0.0286047198 0
0.0816666633 -0.0286047198 0
0.0783333331 -0.0286047198 0
0.075000003 -0.0286047198 0
0.0716666654 -0.0286047198 0
0.0683333352 -0.0286047198 0
0.0649999976 -0.0286047198 0
0.0616666675 -0.0286047198 0
0.0583333336 -0.0286047198 0
0.0549999997 -0.0286047198 0
0.0516666658 -0.0286047198 0
0.0483333319 -0.0286047198 0
0.0450000018 -0.0286047198 0
0.0416666679 -0.0286047198 0
0.038333334 -0.0286047198 0
0.13666667 -0.0314914696 0
0.13333334 -0.0314914696 0
0.129999995 -0.0314914696 0
0.126666665 -0.0314914696 0
0.123333335 -0.0314914696 0
0.119999997 -0.0314914696 0
0.116666667 -0.0314914696 0
0.113333337 -0.0314914696 0
0.109999999 -0.0314914696 0
0.106666669 -0.0314914696 0
0.103333332 -0.0314914696 0
0.100000001 -0.0314914696 0
0.0966666639 -0.0314914696 0
0.0933333337 -0.0314914696 0
0.0900000036 -0.0314914696 0
0.086666666 -0.0314914696 0
0.0833333358 -0.0314914696 0
0.0799999982 -0.0314914696 0
0.0766666681 -0.0314914696 0
0.0733333305 -0.0314914696 0
0.0700000003 -0.0314914696 0
0.0666666701 -0.0314914696 0
0.0633333325 -0.0314914696 0
0.0599999987 -0.0314914696 0
0.0566666685 -0.0314914696 0
0.0533333346 -0.0314914696 0
0.0500000007 -0.0314914696 0
0.0466666669 -0.0314914696 0
0.043333333 -0.0314914696 0
0.0399999991 -0.0314914696 0
0.0366666652 -0.0314914696 0
0.135000005 -0.0343782231 0
0.13166666 -0.0343782231 0
0.12833333 -0.0343782231 0
0.125 -0.0343782231 0
0.12166667 -0.0343782231 0
0.118333332 -0.0343782231 0
0.115000002 -0.0343782231 0
0.111666664 -0.0343782231 0
0.108333334 -0.0343782231 0
0.104999997 -0.0343782231 0
0.101666667 -0.0343782231 0
0.0983333364 -0.0343782231 0
0.0949999988 -0.0343782231 0
0.0916666687 -0.0343782231 0
0.088333331 -0.0343782231 0
0.0850000009 -0.0343782231 0
0.0816666633 -0.0343782231 0
0.0783333331 -0.0343782231 0
0.075000003 -0.0343782231 0
0.0716666654 -0.0343782231 0
0.0683333352 -0.0343782231 0
0.0649999976 -0.0343782231 0
0.0616666675 -0.0343782231 0
0.0583333336 -0.0343782231 0
0.0549999997 -0.0343782231 0
0.0516666658 -0.0343782231 0
0.0483333319 -0.0343782231 0
0.0450000018 -0.0343782231 0
0.0416666679 -0.0343782231 0
0.038333334 -0.0343782231 0
0.0350000001 -0.0343782231 0
0.13333334 -0.0372649729 0
0.129999995 -0.0372649729 0
0.126666665 -0.0372649729 0
0.123333335 -0.0372649729 0
0.119999997 -0.0372649729 0
0.116666667 -0.0372649729 0
0.113333337 -0.0372649729 0
0.109999999 -0.0372649729 0
0.106666669 -0.0372649729 0
0.103333332 -0.0372649729 0
0.100000001 -0.0372649729 0
0.0966666639 -0.0372649729 0
0.0933333337 -0.0372649729 0
0.0900000036 -0.0372649729 0
0.086666666 -0.0372649729 0
0.0833333358 -0.0372649729 0
0.0799999982 -0.0372649729 0
0.0766666681 -0.0372649729 0
0.0733333305 -0.0372649729 0
0.0700000003 -0.0372649729 0
0.0666666701 -0.0372649729 0
0.0633333325 -0.0372649729 0
0.0599999987 -0.0372649729 0
0.0566666685 -0.0372649729 0
0.0533333346 -0.0372649729 0
0.0500000007 -0.0372649729 0
0.0466666669 -0.0372649729 0
0.043333333 -0.0372649729 0
0.0399999991 -0.0372649729 0
0.0366666652 -0.0372649729 0
0.0333333351 -0.0372649729 0
0.13166666 -0.0401517227 0
0.12833333 -0.0401517227 0
0.125 -0.0401517227 0
0.12166667 -0.0401517227 0
0.118333332 -0.0401517227 0
0.115000002 -0.0401517227 0
0.111666664 -0.0401517227 0
[...]
POINT_DATA 961
SCALARS Temp float 1
LOOKUP_TABLE default
415.083316347465
366.7235496805023
326.07436216361543
293.8736791789089
269.48469130952975
251.80734537134336
239.53911112863116
231.3807234800073
226.1768286558177
222.98897027584417
221.11075785329038
220.04475259117916
219.46094865037676
219.15194607856046
218.99371038782678
218.91548807246303
218.87895689844038
218.86513530093427
218.86740295793467
218.88953268436947
218.94870877603307
219.08457785006175
219.37625518251846
219.96915450806492
221.1116037689827
223.19700881524406
226.80086120756627
232.69612224522683
241.83070556239278
255.2658442297827
274.33219942924956
366.7235644375188
319.9667992599082
282.18375238496344
252.8659655344822
231.08497360815704
215.5881950363906
205.0242560652037
198.11899533019505
193.78619484995176
191.1730652312741
189.6560215397098
188.806882744572
188.34789025425226
188.10794890226902
187.9866267708067
187.92772517435696
187.90166972080826
187.89506453895137
187.9059160665728
187.94390160955936
188.03615355098688
188.24010019221578
188.66542170078904
189.50633337189564
191.08242631613302
193.88076744192642
198.58512308415655
206.0739210692015
217.37115608564594
233.55458133136784
255.26586385420754
326.07431652465164
282.18373146792175
247.22236707450475
220.4838079826291
200.86790313912493
187.06643562139695
177.75017210603616
171.71236044141136
167.95159848965264
165.69755353409946
164.39574510211452
163.67017874990444
163.27934755111977
163.075667211931
162.97311854315015
162.92401856990023
162.90393427665992
162.90319937118758
162.92391063015833
162.98222642074768
163.11685911131593
163.4055567441344
163.99139139508574
165.11898032951376
167.17672780165148
170.73482427610568
176.56224743332407
185.60288057954708
198.89290426869877
217.37114670940738
241.83071569640413
293.87362295823755
252.865935729776
220.48380889317295
195.90191272242978
177.97407893541074
165.4150935058
156.9624551108436
151.49383616152952
148.08997519748013
146.04951114240714
144.8700482217187
144.21177364232645
143.85659251574899
143.67122015379312
143.57798632662667
143.53404692265622
143.5181022514569
143.52336408339025
143.55603104826076
143.63944282705938
143.82509824849393
144.2123154254148
144.97776404158554
146.41365369655188
148.96851776577606
153.27798002452175
160.16742368875543
170.60686546616736
185.60289608083306
206.07393414069895
232.6961137720232
269.4846404964058
231.0849467938347
200.86788870499075
177.97414434881293
161.28646113679102
149.58856765840866
141.70285108212147
136.5892393721744
133.3974802015469
131.47824567405704
130.36526981764968
129.74209053221895
129.4048197709345
129.22840185000294
129.13980898934966
129.0989570601134
129.08666245781274
129.0987055177721
129.14556220695442
129.25822133182407
129.5013694381561
129.99547793570648
130.94824638738515
132.69281705752468
135.7249523061585
140.72533551212268
148.54917125350661
160.16741695452217
176.5622428162957
198.58512134619127
226.80086710224387
251.80729499286875
215.5882301080906
187.0664819229599
165.4150627705298
149.58855572589832
138.4567076689551
130.92489600083934
126.02231803188356
122.95091089490235
121.0974939809943
120.01914351984537
119.41354110993296
119.08495494368205
118.91284988858597
118.82673040887927
118.78817218117409
118.77963379724164
118.79937539241236
118.86224443669853
119.00688853605598
119.31060972537374
119.91299400763744
121.04798095407001
123.08064448680513
126.53982261792838
132.13272418668996
140.72533255796446
153.2779813385649
170.73483123096585
193.88074633238955
223.19700273036148
239.53911994818554
205.02427870897267
177.7502176339046
156.96241906294856
141.70283697615454
130.92489241785594
123.60371459880774
118.82101354797831
115.81498218000063
113.99583581602435
112.93480667054558
112.33768950466794
112.0132064418189
111.84322385306405
111.75864801219473
111.72216676101702
111.71766479226282
111.7458094360362
111.82569276148487
112.00310910280496
112.36651464290966
113.07137332221541
114.37188139227582
116.65557877581372
120.47168262107597
126.53981900029073
135.7249446711877
148.96850665146786
167.17672619132753
191.08242421640063
221.11161249721192
231.38073882704103
198.1190220533013
171.71230491209965
151.4938044458146
136.5892386067467
126.02232844626451
118.82101105424184
114.10352799650711
111.13157309486988
109.32958865747659
108.27690926157243
107.68376540676805
107.36121115103303
107.1923742835532
107.10898456625888
107.07457236925792
107.07431730994632
107.11114250414921
107.20800052661286
107.41687226926436
107.83531360866819
108.63088819404858
110.07200336759391
112.56029571061093
116.6555768148203
123.08064169371217
132.69281878666436
146.4136549224973
165.11896589862957
189.5063141537263
219.96914450608332
226.1768363495962
193.78622841031566
167.951553797892
148.0899574300164
133.39748239007415
122.95090154434321
115.81497995947957
111.13158001436008
108.17672388045759
106.38302353753323
105.33424310456648
104.74292521170662
104.42131379849641
104.2532118973548
104.17088386640194
104.13855467977622
104.14256383776218
104.18783246051622
104.30058467106808
104.53775696251438
105.00373940195256
105.8745232960096
107.42749799552904
110.07200521548106
114.37188193504593
121.04798029626593
130.94824502578044
144.97775984539456
163.99139506472267
188.66542860445807
219.376274027623
222.9890071390208
191.17300116827744
165.69753060655805
146.04950767023524
131.47825809630856
121.09749297168113
113.99584117249792
109.32958707699822
106.38302227154664
104.59319421802088
103.54619742394355
102.95572961369216
102.63463810969716
102.4671076729133
102.38578838054543
102.35549083268054
102.36354980607858
102.41654251445516
102.54326724292768
102.80432783832941
103.3088282140046
104.23808906557016
105.87452197131243
108.63088786494289
113.07137305639576
119.91299341386475
129.9954776242649
144.21229828624112
163.40554206714495
188.24008338821204
219.08456933460783
221.11081710118347
189.65597133351858
164.39573243473995
144.87005382749035
130.3652596374809
120.01914479843069
112.934813924726
108.27690954768194
105.33424479568941
103.54619728414201
102.50002375677539
101.90999058592875
101.58925504568829
101.42223423353057
101.34187509569264
101.3134700533044
101.32515996359892
101.38480187711113
101.52307087324104
101.80307133029355
102.33687744822154
103.3088296508789
105.00373982414841
107.83531239688479
112.36651270124786
119.31060845930179
129.50136653346354
143.82509645034585
163.11686431353928
188.03616206637915
218.94869550107933
220.0446922514527
188.8068498385881
163.67017651568077
144.21178597552526
129.74208185201678
119.4135451111551
112.33768522522543
107.68376625897429
104.74292218885668
102.95572958917262
101.90999166260886
101.32025274092686
100.99983335487494
100.83330547120002
100.75384552706545
100.72712372615854
100.74189258448128
100.80692898097695
100.95417398337315
101.24829888988458
101.80307241124649
102.80432862925737
104.53775637795223
107.41687485129965
112.0031128363258
119.00689505995804
129.25821654684054
143.63943698267573
162.98222766044069
187.9439034654341
218.8895466609591
219.46092004573734
188.34788429873004
163.27936480795535
143.85657925972347
129.4048218282143
119.08496700789756
112.01320553513831
107.3612149645284
104.42131236709243
102.63463911388172
101.58925443495453
100.9998329972198
100.67977722931984
100.51376604692395
100.43514671159961
100.409870257967
100.42712337201232
100.49629840159278
100.65012541029343
100.95417313367223
101.52307059850085
102.54326836122301
104.30058244809499
107.20799968214585
111.82569130623408
118.86224220415787
129.1455605375013
143.55602948353052
162.9239173008376
187.9058933618329
218.8674067579332
219.15192304119506
188.10794739111066
163.0756901320254
143.67120825148527
129.22840571852382
118.91284245217965
111.84322437033678
107.19237133022678
104.2532109749695
102.4671091987902
101.42223348957464
100.83330545229961
100.51376595960942
100.34836314496658
100.27056397426
100.24651861766507
100.265705105425
100.33790252030813
100.49629827327347
100.80692920897924
101.38480177934413
102.41654321199293
104.18783225712353
107.11114475779362
111.74581336212346
118.79937216971723
129.0987013658746
143.5233591844639
162.9032006731787
187.89506830508827
218.86513452340955
218.99370915255304
187.98664571456717
162.97310481091674
143.57798700732042
129.13982433865533
118.82672875901613
111.75865405976934
107.10898391855831
104.17088382342156
102.38578805555277
101.34187508676253
100.75384578262626
100.43514662130318
100.27056407385241
100.19365063126911
100.17069722533891
100.19137663434934
100.26570502449292
100.42712315832958
100.74189229106733
101.32515999703753
102.3635493176171
104.14256173931386
107.07431652277384
111.71766325157812
118.77963280675625
129.0866616470445
143.51810190297687
162.9039183405839
187.90166588095605
218.8789485676163
218.91548858881146
187.92774731628782
162.9240061106287
143.53405019715547
129.09894558333582
118.78817202558183
111.72216148548478
107.07457268341955
104.13855575666081
102.3554905085126
101.31347019075466
100.7271231006573
100.40987029006652
100.24651847180179
100.17069722815481
100.14881599719196
100.17069726750914
100.24651853013944
100.40987050836162
100.72712337941547
101.31346986785852
102.35549160655053
104.13855465701869
107.07457495724141
111.72216449938037
118.78816936545361
129.0989543926183
143.53404254929407
162.9240230385465
187.92771542378281
218.91549012964566
218.87897870555486
187.9016465012052
162.90394101807667
143.51812115017157
129.08665912385132
118.77964186223852
111.7176635533559
107.07431954143887
104.14256173932678
102.36355061132528
101.32516090354527
100.74189228685547
100.42712368634926
100.2657050716995
100.19137667411957
100.17069729739225
100.19365069454447
100.27056389528451
100.4351467110865
100.75384534939347
101.34187440070701
102.38578806340195
104.17088191188984
107.10898357193939
111.75864763588532
118.82673007684018
129.13980940600803
143.5779683208602
162.97311566398326
187.98661021496878
218.9937023121369
218.86516693833457
187.89504700547764
162.90321018113585
143.5233461902925
129.0987045470938
118.79936714831751
111.74580956150047
107.11114634135714
104.18783035831379
102.41654373450451
101.3848012695426
100.80692881066514
100.49629815508648
100.33790243568825
100.2657051745381
100.24651863698597
100.27056399793634
100.34836325642584
100.51376609881017
100.83330525079467
101.42223408175563
102.46710844697071
104.25321223554552
107.19237297200395
111.84322215120169
118.91284776020048
129.22839869428628
143.67121838336442
163.07565888900655
188.1079402636687
219.15194728715826
218.86737005173626
187.9059058292329
162.9239277464836
143.5560145278164
129.14556488507276
118.86223677139864
111.82569210503435
107.20799717107388
104.3005830718718
102.54326898470931
101.52307002570132
100.95417375449931
100.65012527506327
100.49629831193215
100.42712335880472
100.40987025042976
100.43514664176472
100.51376614280055
100.67977709291986
100.99983284044932
101.58925484583882
102.63463870855419
104.42131339676835
107.36121280914368
112.01320955603805
119.08496101040437
129.4048144658927
143.85659536489462
163.2793470740344
188.34789043494885
219.4609591439125
218.8895253296348
187.9439143736788
162.98220891904737
143.63944039269703
129.2582087483162
119.0068891770576
112.00311513389217
107.41687181839549
104.53775724653845
102.80432778053947
101.80307173892447
101.24829867563993
100.95417381536825
100.80692914349254
100.74189261031869
100.72712373041783
100.75384557743318
100.83330552995476
100.99983323004862
101.32025304332552
101.90999117207295
102.95573025843038
104.74292301026327
107.68376456301593
112.33768829662256
119.41353950656303
129.7420885186967
144.2117613310102
163.67017139512163
188.80687426715215
220.04475320310613
218.94870483977795
188.0361716723366
163.1168429733002
143.82510145510633
129.50135850363853
119.31060960271093
112.36650882669313
107.83531343910816
105.00374088719973
103.30882871414364
102.3368785518462
101.8030711386147
101.52307072580834
101.384801833243
101.32515990174892
101.31347005180827
101.34187517566707
101.42223414431001
101.58925497438987
101.90999079380609
102.50002347300841
103.5461978245673
105.33424332658713
108.27691200302202
112.93480967921198
120.01913974799653
130.36527196774233
144.8700428422516
164.3957442902148
189.65602154542012
221.1107545420796
219.08457538468053
188.24005623441218
163.40554566600895
144.2122873695437
129.99546937043425
119.9129968415055
113.07136861850177
108.63088932407507
105.87452069267324
104.23808802754873
103.30882786422214
102.80432753154678
102.54326755430101
102.41654260194187
102.36354981130556
102.35549085205798
102.38578839135349
102.46710760115134
102.63463826576385
102.95572932850722
103.54619782499537
104.59319464727376
106.38302122787326
109.32958912374033
113.99583771025169
121.09749869550461
131.47824228430088
146.0495092234175
165.69756162194324
191.17307645884557
222.98898677287943
219.3763021226955
188.6654200971242
163.99141673875445
144.97776118632103
130.9482562427877
121.04798204861946
114.37188935365184
110.07201158812742
107.42750048621346
105.87452861336827
105.0037424120054
104.53775983532466
104.30058759487422
104.18783527142516
104.14256684826051
104.13855773582381
104.1708867009621
104.25321479135211
104.42131672632141
104.74292771094568
105.33424588625992
106.38302478828358
108.17672704329188
111.13157813555061
115.81497678353806
122.95090939470063
133.3974728543738
148.08996496365899
167.95159262891937
193.78616562793383
226.17681054613567
219.96913779246353
189.50633985017086
165.1189683605864
146.41365732241837
132.69283429224632
123.08064426195696
116.65558630472798
112.56030014522038
110.07200747669799
108.63089287124252
107.83531807370436
107.41687767999122
107.2080055871382
107.11114733007992
107.07432208864614
107.0745770952292
107.10898927196844
107.19237907312144
107.36121564899716
107.68377024372589
108.27691378714724
109.32959209269536
111.13157798372076
114.10352869118076
118.8210171250316
126.02231828298918
136.58923972561774
151.49382636002477
171.71235770799044
198.1189885344657
231.380722594317
221.11159742895424
191.0824436172143
167.17672197691869
148.96851708394692
135.72494372686117
126.53982700849139
120.47168999879891
116.65558101591283
114.37188817179549
113.0713769727809
112.3665181098158
112.0031126451231
111.8256960916558
111.74581321841006
111.71766866966522
111.72217031343541
111.75865178993654
111.84322758885662
112.01320992830337
112.3376932764394
112.93480972676693
113.99584023709338
115.81498377554938
118.82101516778032
123.6037243231134
130.9248908666906
141.70284882693164
156.96245498386116
177.75016813146618
205.02425428275768
239.5391218840759
223.19701081209578
193.88073093961108
170.73481921810497
153.27798879493136
140.7253255664339
132.13272792493137
126.53982060153525
123.0806427237537
121.04798030909349
119.91299324351105
119.31061060063347
119.00688909433346
118.86224460246918
118.79937545624388
118.77963377085545
118.78817225941117
118.82673054611038
118.91284994315983
119.0849554032348
119.41354130143746
120.01914346709637
121.09749523040071
122.9509100337297
126.02232150474403
130.92488925751508
138.45670997204425
149.58857427728577
165.41510476664507
187.0664501217006
215.58820535136482
251.80729638763682
226.80086467353914
198.58509537054582
176.56223735137004
160.16739917698243
148.54916628326083
140.72533078730623
135.7249414333826
132.69281273537004
130.94823827774277
129.99546964108302
129.50136124670075
129.25821277989525
129.14555443332094
129.09869792678947
129.08665438063585
129.09894940368528
129.1398012037238
129.22839388003118
129.40481209707508
129.74208264267898
130.3652628979533
131.47823720047774
133.39747259804403
136.5892374959359
141.70284151828366
149.58856808471174
161.28647904390442
177.974090082023
200.86784920792857
231.0849211680169
269.4846374063928
232.69612635790742
206.07394877914433
185.6029319523837
170.60688253875713
160.1674522206454
153.27800048508655
148.96853792100214
146.41367473359696
144.97778463737265
144.21233816861024
143.82512063262658
143.63946458170548
143.55605258950857
143.52338545953802
143.51812386613474
143.53406853071235
143.5780079144433
143.67124212440496
143.8566139459616
144.21179499018368
144.87007018200862
146.04953122013944
148.08999727720615
151.49384971811557
156.96247305501112
165.41512027096186
177.97411858436058
195.90188263341417
220.48377256340729
252.86590636840762
293.8736268258215
241.83072657743594
217.37117985905044
198.8929204557406
185.60290924589665
176.56227492186252
170.73484352111072
167.17675424286247
165.11900210803586
163.9914127685633
163.40557809003155
163.11687980707165
162.98224811526035
162.9239325848041
162.90322072035212
162.9039562038341
162.9240402507233
162.97313998666894
163.07568881703102
163.27936902524888
163.67020058647987
164.39576543060372
165.69757430294717
167.95162205337328
171.7123762290442
177.75019272107275
187.0664652130698
200.8678658937291
220.48377307471046
247.22232943435034
282.1836980612027
326.07431325036447
255.26586668644782
233.55460485354774
217.3711588179121
206.07393634100612
198.5851298306342
193.88077409409343
191.08243406033057
189.50634077496028
188.6654318900673
188.24010994846384
188.0361624174711
187.94391025904713
187.90592453208393
187.89507345373164
187.90167854664952
187.92773403461624
187.98663604005617
188.10795750372276
188.34789907717774
188.80689204529548
189.65602947650717
191.17307457090035
193.78619773760795
198.11900149058812
205.02426826537007
215.58821624423302
231.0849313304419
252.86591126934945
282.1836910059668
319.9667407221508
366.7234687157801
274.33221582790054
255.26583859783983
241.83071245301142
232.69612814625236
226.80085809080862
223.1970135233898
221.11160336885524
219.96915481137825
219.37625539511308
219.08457636947784
218.9487087581626
218.8895327926695
218.86740291088685
218.8651356588877
218.8789569719736
218.91548813479665
218.9937099817314
219.1519462678773
219.46094884480993
220.04475155048232
221.1107573581674
222.98897225294775
226.17682464569583
231.380722623831
239.53911562315676
251.80729076936993
269.48463838122746
293.87361674057604
326.0742892785036
366.7234508854152
415.0829057587555
