# vtk DataFile Version 2.0
Unstructured Grid Example
ASCII
DATASET UNSTRUCTURED_GRID

POINTS 961 float
0.150000006 -0.00839745998 0
0.146666661 -0.00839745998 0
0.143333331 -0.00839745998 0
0.140000001 -0.00839745998 0
0.13666667 -0.00839745998 0
0.13333334 -0.00839745998 0
0.129999995 -0.00839745998 0
0.126666665 -0.00839745998 0
0.123333335 -0.00839745998 0
0.119999997 -0.00839745998 0
0.116666667 -0.00839745998 0
0.113333337 -0.00839745998 0
0.109999999 -0.00839745998 0
0.106666669 -0.00839745998 0
0.103333332 -0.00839745998 0
0.100000001 -0.00839745998 0
0.0966666639 -0.00839745998 0
0.0933333337 -0.00839745998 0
0.0900000036 -0.00839745998 0
0.086666666 -0.00839745998 0
0.0833333358 -0.00839745998 0
0.0799999982 -0.00839745998 0
0.0766666681 -0.00839745998 0
0.0733333305 -0.00839745998 0
0.0700000003 -0.00839745998 0
0.0666666701 -0.00839745998 0
0.0633333325 -0.00839745998 0
0.0599999987 -0.00839745998 0
0.0566666685 -0.00839745998 0
0.0533333346 -0.00839745998 0
0.0500000007 -0.00839745998 0
0.148333326 -0.0112842107 0
0.144999996 -0.0112842107 0
0.141666666 -0.0112842107 0
0.138333336 -0.0112842107 0
0.135000005 -0.0112842107 0
0.13166666 -0.0112842107 0
0.12833333 -0.0112842107 0
0.125 -0.0112842107 0
0.12166667 -0.0112842107 0
0.118333332 -0.0112842107 0
0.115000002 -0.0112842107 0
0.111666664 -0.0112842107 0
0.108333334 -0.0112842107 0
0.104999997 -0.0112842107 0
0.101666667 -0.0112842107 0
0.0983333364 -0.0112842107 0
0.0949999988 -0.0112842107 0
0.0916666687 -0.0112842107 0
0.088333331 -0.0112842107 0
0.0850000009 -0.0112842107 0
0.0816666633 -0.0112842107 0
0.0783333331 -0.0112842107 0
0.075000003 -0.0112842107 0
0.0716666654 -0.0112842107 0
0.0683333352 -0.0112842107 0
0.0649999976 -0.0112842107 0
0.0616666675 -0.0112842107 0
0.0583333336 -0.0112842107 0
0.0549999997 -0.0112842107 0
0.0516666658 -0.0112842107 0
0.0483333319 -0.0112842107 0
0.146666661 -0.0141709624 0
0.143333331 -0.0141709624 0
0.140000001 -0.0141709624 0
0.13666667 -0.0141709624 0
0.13333334 -0.0141709624 0
0.129999995 -0.0141709624 0
0.126666665 -0.0141709624 0
0.123333335 -0.0141709624 0
0.119999997 -0.0141709624 0
0.116666667 -0.0141709624 0
0.113333337 -0.0141709624 0
0.109999999 -0.0141709624 0
0.106666669 -0.0141709624 0
0.103333332 -0.0141709624 0
0.100000001 -0.0141709624 0
0.0966666639 -0.0141709624 0
0.0933333337 -0.0141709624 0
0.0900000036 -0.0141709624 0
0.086666666 -0.0141709624 0
0.0833333358 -0.0141709624 0
0.0799999982 -0.0141709624 0
0.0766666681 -0.0141709624 0
0.0733333305 -0.0141709624 0
0.0700000003 -0.0141709624 0
0.0666666701 -0.0141709624 0
0.0633333325 -0.0141709624 0
0.0599999987 -0.0141709624 0
0.0566666685 -0.0141709624 0
0.0533333346 -0.0141709624 0
0.0500000007 -0.0141709624 0
0.0466666669 -0.0141709624 0
0.144999996 -0.0170577131 0
0.141666666 -0.0170577131 0
0.138333336 -0.0170577131 0
0.135000005 -0.0170577131 0
0.13166666 -0.0170577131 0
0.12833333 -0.0170577131 0
0.125 -0.0170577131 0
0.12166667 -0.0170577131 0
0.118333332 -0.0170577131 0
0.115000002 -0.0170577131 0
0.111666664 -0.0170577131 0
0.108333334 -0.0170577131 0
0.104999997 -0.0170577131 0
0.101666667 -0.0170577131 0
0.0983333364 -0.0170577131 0
0.0949999988 -0.0170577131 0
0.0916666687 -0.0170577131 0
0.088333331 -0.0170577131 0
0.0850000009 -0.0170577131 0
0.0816666633 -0.0170577131 0
0.0783333331 -0.0170577131 0
0.075000003 -0.0170577131 0
0.0716666654 -0.0170577131 0
0.0683333352 -0.0170577131 0
0.0649999976 -0.0170577131 0
0.0616666675 -0.0170577131 0
0.0583333336 -0.0170577131 0
0.0549999997 -0.0170577131 0
0.0516666658 -0.0170577131 0
0.0483333319 -0.0170577131 0
0.0450000018 -0.0170577131 0
0.143333331 -0.0199444648 0
0.140000001 -0.0199444648 0
0.13666667 -0.0199444648 0
0.13333334 -0.0199444648 0
0.129999995 -0.0199444648 0
0.126666665 -0.0199444648 0
0.123333335 -0.0199444648 0
0.119999997 -0.0199444648 0
0.116666667 -0.0199444648 0
0.113333337 -0.0199444648 0
0.109999999 -0.0199444648 0
0.106666669 -0.0199444648 0
0.103333332 -0.0199444648 0
0.100000001 -0.0199444648 0
0.0966666639 -0.0199444648 0
0.0933333337 -0.0199444648 0
0.0900000036 -0.0199444648 0
0.086666666 -0.0199444648 0
0.0833333358 -0.0199444648 0
0.0799999982 -0.0199444648 0
0.0766666681 -0.0199444648 0
0.0733333305 -0.0199444648 0
0.0700000003 -0.0199444648 0
0.0666666701 -0.0199444648 0
0.0633333325 -0.0199444648 0
0.0599999987 -0.0199444648 0
0.0566666685 -0.0199444648 0
0.0533333346 -0.0199444648 0
0.0500000007 -0.0199444648 0
0.0466666669 -0.0199444648 0
0.043333333 -0.0199444648 0
0.141666666 -0.0228312165 0
0.138333336 -0.0228312165 0
0.135000005 -0.0228312165 0
0.13166666 -0.0228312165 0
0.12833333 -0.0228312165 0
0.125 -0.0228312165 0
0.12166667 -0.0228312165 0
0.118333332 -0.0228312165 0
0.115000002 -0.0228312165 0
0.111666664 -0.0228312165 0
0.108333334 -0.0228312165 0
0.104999997 -0.0228312165 0
0.101666667 -0.0228312165 0
0.0983333364 -0.0228312165 0
0.0949999988 -0.0228312165 0
0.0916666687 -0.0228312165 0
0.088333331 -0.0228312165 0
0.0850000009 -0.0228312165 0
0.0816666633 -0.0228312165 0
0.0783333331 -0.0228312165 0
0.075000003 -0.0228312165 0
0.0716666654 -0.0228312165 0
0.0683333352 -0.0228312165 0
0.0649999976 -0.0228312165 0
0.0616666675 -0.0228312165 0
0.0583333336 -0.0228312165 0
0.0549999997 -0.0228312165 0
0.0516666658 -0.0228312165 0
0.0483333319 -0.0228312165 0
0.0450000018 -0.0228312165 0
0.0416666679 -0.0228312165 0
0.140000001 -0.0257179681 0
0.13666667 -0.0257179681 0
0.13333334 -0.0257179681 0
0.129999995 -0.0257179681 0
0.126666665 -0.0257179681 0
0.123333335 -0.0257179681 0
0.119999997 -0.0257179681 0
0.116666667 -0.0257179681 0
0.113333337 -0.0257179681 0
0.109999999 -0.0257179681 0
0.106666669 -0.0257179681 0
0.103333332 -0.0257179681 0
0.100000001 -0.0257179681 0
0.0966666639 -0.0257179681 0
0.0933333337 -0.0257179681 0
0.0900000036 -0.0257179681 0
0.086666666 -0.0257179681 0
0.0833333358 -0.0257179681 0
0.0799999982 -0.0257179681 0
0.0766666681 -0.0257179681 0
0.0733333305 -0.0257179681 0
0.0700000003 -0.0257179681 0
0.0666666701 -0.0257179681 0
0.0633333325 -0.0257179681 0
0.0599999987 -0.0257179681 0
0.0566666685 -0.0257179681 0
0.0533333346 -0.0257179681 0
0.0500000007 -0.0257179681 0
0.0466666669 -0.0257179681 0
0.043333333 -0.0257179681 0
0.0399999991 -0.0257179681 0
0.138333336 -0.0286047198 0
0.135000005 -0.0286047198 0
0.13166666 -0.0286047198 0
0.12833333 -0.0286047198 0
0.125 -0.0286047198 0
0.12166667 -0.0286047198 0
0.118333332 -0.0286047198 0
0.115000002 -0.0286047198 0
0.111666664 -0.0286047198 0
0.108333334 -0.0286047198 0
0.104999997 -0.0286047198 0
0.101666667 -0.0286047198 0
0.0983333364 -0.0286047198 0
0.0949999988 -0.0286047198 0
0.0916666687 -0.0286047198 0
0.088333331 -0.0286047198 0
0.0850000009 -0.0286047198 0
0.0816666633 -0.0286047198 0
0.0783333331 -0.0286047198 0
0.075000003 -0.0286047198 0
0.0716666654 -0.0286047198 0
0.0683333352 -0.0286047198 0
0.0649999976 -0.0286047198 0
0.0616666675 -0.0286047198 0
0.0583333336 -0.0286047198 0
0.0549999997 -0.0286047198 0
0.0516666658 -0.0286047198 0
0.0483333319 -0.0286047198 0
0.0450000018 -0.0286047198 0
0.0416666679 -0.0286047198 0
0.038333334 -0.0286047198 0
0.13666667 -0.0314914696 0
0.13333334 -0.0314914696 0
0.129999995 -0.0314914696 0
0.126666665 -0.0314914696 0
0.123333335 -0.0314914696 0
0.119999997 -0.0314914696 0
0.116666667 -0.0314914696 0
0.113333337 -0.0314914696 0
0.109999999 -0.0314914696 0
0.106666669 -0.0314914696 0
0.103333332 -0.0314914696 0
0.100000001 -0.0314914696 0
0.0966666639 -0.0314914696 0
0.0933333337 -0.0314914696 0
0.0900000036 -0.0314914696 0
0.086666666 -0.0314914696 0
0.0833333358 -0.0314914696 0
0.0799999982 -0.0314914696 0
0.0766666681 -0.0314914696 0
0.0733333305 -0.0314914696 0
0.0700000003 -0.0314914696 0
0.0666666701 -0.0314914696 0
0.0633333325 -0.0314914696 0
0.0599999987 -0.0314914696 0
0.0566666685 -0.0314914696 0
0.0533333346 -0.0314914696 0
0.0500000007 -0.0314914696 0
0.0466666669 -0.0314914696 0
0.043333333 -0.0314914696 0
0.0399999991 -0.0314914696 0
0.0366666652 -0.0314914696 0
0.135000005 -0.0343782231 0
0.13166666 -0.0343782231 0
0.12833333 -0.0343782231 0
0.125 -0.0343782231 0
0.12166667 -0.0343782231 0
0.118333332 -0.0343782231 0
0.115000002 -0.0343782231 0
0.111666664 -0.0343782231 0
0.108333334 -0.0343782231 0
0.104999997 -0.0343782231 0
0.101666667 -0.0343782231 0
0.0983333364 -0.0343782231 0
0.0949999988 -0.0343782231 0
0.0916666687 -0.0343782231 0
0.088333331 -0.0343782231 0
0.0850000009 -0.0343782231 0
0.0816666633 -0.0343782231 0
0.0783333331 -0.0343782231 0
0.075000003 -0.0343782231 0
0.0716666654 -0.0343782231 0
0.0683333352 -0.0343782231 0
0.0649999976 -0.0343782231 0
0.0616666675 -0.0343782231 0
0.0583333336 -0.0343782231 0
0.0549999997 -0.0343782231 0
0.0516666658 -0.0343782231 0
0.0483333319 -0.0343782231 0
0.0450000018 -0.0343782231 0
0.0416666679 -0.0343782231 0
0.038333334 -0.0343782231 0
0.0350000001 -0.0343782231 0
0.13333334 -0.0372649729 0
0.129999995 -0.0372649729 0
0.126666665 -0.0372649729 0
0.123333335 -0.0372649729 0
0.119999997 -0.0372649729 0
0.116666667 -0.0372649729 0
0.113333337 -0.0372649729 0
0.109999999 -0.0372649729 0
0.106666669 -0.0372649729 0
0.103333332 -0.0372649729 0
0.100000001 -0.0372649729 0
0.0966666639 -0.0372649729 0
0.0933333337 -0.0372649729 0
0.0900000036 -0.0372649729 0
0.086666666 -0.0372649729 0
0.0833333358 -0.0372649729 0
0.0799999982 -0.0372649729 0
0.0766666681 -0.0372649729 0
0.0733333305 -0.0372649729 0
0.0700000003 -0.0372649729 0
0.0666666701 -0.0372649729 0
0.0633333325 -0.0372649729 0
0.0599999987 -0.0372649729 0
0.0566666685 -0.0372649729 0
0.0533333346 -0.0372649729 0
0.0500000007 -0.0372649729 0
0.0466666669 -0.0372649729 0
0.043333333 -0.0372649729 0
0.0399999991 -0.0372649729 0
0.0366666652 -0.0372649729 0
0.0333333351 -0.0372649729 0
0.13166666 -0.0401517227 0
0.12833333 -0.0401517227 0
0.125 -0.0401517227 0
0.12166667 -0.0401517227 0
0.118333332 -0.0401517227 0
0.115000002 -0.0401517227 0
0.111666664 -0.0401517227 0
[...]
POINT_DATA 961
SCALARS Temp float 1
LOOKUP_TABLE default
389.9874236346137
340.89334805577204
300.6839657433086
269.9906326155214
247.78924574288772
232.55148692988544
222.6159429633908
216.45203622112325
212.80653130529805
210.74655140183918
209.63168802607385
209.05235661017514
208.76257203200723
208.62270618767963
208.55743654507737
208.5279952595148
208.51537360268432
208.51095783284893
208.51200647927783
208.52052146644732
208.54546600816158
208.60970297870526
208.76467441291942
209.1171015257099
209.87150234072757
211.3882078256519
214.2468713550793
219.29228553944486
227.63082462904242
240.5586525531741
259.69890967190076
340.893363388341
293.85653593467094
257.0609997864131
229.64856195842924
210.26253482051806
197.2392533804573
188.91902791086372
183.8556388232921
180.91457366504193
179.28035780193514
178.40958852740556
177.9635560119487
177.74338647946047
177.63841680060395
177.59001144023998
177.5685169471058
177.5597408645541
177.55776468948002
177.56193286681477
177.57719526868956
177.61838375846642
177.72060232898085
177.95946877733388
178.4855831493755
179.5756506174991
181.69590797410524
185.5614465329125
192.16198251618434
202.720010514908
218.57005384497563
240.55867195339593
300.68392163120376
257.06098043396423
223.47345735091764
198.84202122240882
181.65216881055736
170.23370052724232
163.0075035820019
158.64408544910097
156.12547399141536
154.7328866651813
153.99364269305696
153.61602067460834
153.4299809377558
153.3414097849993
153.30065031722395
153.28272466023446
153.27591359250997
153.2759225957601
153.28397683516602
153.30854087002595
153.37181460478413
153.5237983642674
153.86798825098091
154.6024936351567
156.07663397618919
158.85408587225845
163.76043000823236
171.8810161934545
184.4721853669895
202.72000103512661
227.6308340260264
269.9905801509787
229.64853564181155
198.84202331802018
176.39667098976284
160.8030035123453
150.47232346062657
143.94151013881265
139.99717265124673
137.7177177836845
136.45491505777815
135.7829138534598
135.43868713188527
135.26860341506156
135.18740835935614
135.15001135946713
135.13375445519736
135.1282515616316
135.13043069705165
135.14354455944283
135.1802452899887
135.27135419175443
135.48345889920958
135.94925474064294
136.91323098137798
138.78993431480785
142.22171675012547
148.1100251643799
157.585035674455
171.88103083661395
192.16199536912677
219.29227713016238
247.78920093528347
210.26251284376752
181.6521579816932
160.80306039845294
146.29440180287747
136.65607690833016
130.5416930064455
126.83440962240904
124.68320807851391
123.48659983281847
122.84732072949286
122.51864509154971
122.3556987821521
122.2777036367126
122.24178729940508
122.22645268559154
122.22215554596423
122.22697048008504
122.24641816245403
122.29786385207836
122.42140907505045
122.70047010100487
123.29543841817728
124.49149657514984
126.75522469162846
130.7841323187742
137.5221186555924
148.11001886637766
163.7604257486316
185.56144449221333
214.24687745704142
232.55144406806642
197.23928401095995
170.2337410949706
150.47229496122506
136.65606608841705
127.43315057229215
121.55459837952205
117.9744771482082
115.88865232990149
114.72420846703132
114.100135727112
113.77839121311764
113.61851496572677
113.54188189338633
113.50667682890229
113.49203243186741
113.48906519900434
113.4970359468052
113.52391169334605
113.5919643455032
113.75043390939834
114.09826424510497
114.8195832458412
116.23155083965936
118.83737859313096
123.36762832808866
130.7841298772319
142.22171796048704
158.8540928051404
181.69588754706385
211.3882009463083
222.61594959514733
188.91904786758488
163.007545201194
143.94147679231287
130.541680660751
121.55459553631215
115.80280036174392
112.2876115738023
110.23358238052133
109.08408457800905
108.46678177692745
108.14800699888477
107.98941389376124
107.91337615553772
107.87859721064888
107.86461726520812
107.86316143082064
107.8747063982468
107.90968453063608
107.9950626844462
108.18829104493543
108.60131659428016
109.43660444886443
111.03372008947238
113.91840554714341
118.83737557152241
126.75521809534987
138.78992452585277
156.07663176674984
179.57564827042077
209.87151124372525
216.45205037093228
183.85566365626116
158.64403325576646
139.9971440854079
126.83440793911835
117.97448545168453
112.28760971289316
108.80408516597133
106.76485935572896
105.6220299375387
105.00762594348176
104.69008304048272
104.53202362511456
104.45628237683782
104.42184355123334
104.40856593441887
104.40876066893154
104.42408713610392
104.4672707970557
104.56939282327626
104.79462616294829
105.26478280700967
106.19505121928613
107.938871166573
111.03371859241034
116.23154879457084
124.49149781658059
136.91323198933142
154.6024798695357
178.48556423802398
209.11709171509483
212.80653790397275
180.91460588689432
156.12542946920976
137.71770039795797
124.6832095716795
115.88864484738433
110.23358092476458
106.76486424168502
104.73226606930895
103.59230058095784
102.97909770056512
102.66205574342735
102.50423046096495
102.42867802149706
102.39456266760513
102.38202138685786
102.38391144879999
102.40296268430723
102.45386246680798
102.5709879611289
102.8235194103375
103.34002946016444
104.34357856462248
106.19505258793852
109.43660461401423
114.81958244101968
123.2954371565389
135.94925075073658
153.8679918871277
177.95947526891086
208.7646930803257
210.74658570283714
179.28029414496004
154.73286481234578
136.4549121868223
123.48661147899347
114.72420766376233
109.08408883187475
105.62202904472188
103.59229982541376
102.45352355470555
101.84080855223112
101.52397382222297
101.3662704827564
101.29087217616731
101.25707827787346
101.24527161551042
101.24878896927676
101.27125448125675
101.32889538114196
101.4585002611483
101.73263450724644
102.28403203954106
103.34002853893776
105.26478249535349
108.60131645315482
114.09826387302122
122.70047009049088
135.48344305317562
153.5237841929262
177.72058576326114
208.60969425802986
209.63174584241034
178.40953922228104
153.99363142793953
135.78291904662666
122.8473122902125
114.100137059166
108.4667877144453
105.00762609917668
102.97909882518167
101.84080848113697
101.22829316291025
100.91155518526709
100.75393693388969
100.67868296131681
100.64520237769743
100.6340858233983
100.63906159793892
100.66444207276706
100.72756156746416
100.86681590962567
101.15683815514619
101.73263534781059
102.82351970460509
104.7946252977594
108.1882896121288
113.75043273034407
122.4214063116002
135.27135257704296
153.37181953359482
177.61839223615607
208.54545270820861
209.05229748477385
177.96352433412156
153.6160192084581
135.43869917066448
122.51863796066246
113.77839451914662
108.14800379348034
104.69008366690647
102.66205374165611
101.52397383260414
100.91155576273859
100.59488368064139
100.43734542301375
100.36223489163866
100.32904920709653
100.31854371751967
100.32474229903968
100.35244417986158
100.41971188805331
100.56591450103753
100.86681651666082
101.45850073004358
102.57098756917729
104.56939457007677
107.99506544978952
113.59196971318764
122.29785964742075
135.18023992614755
153.30854194997755
177.57719689938088
208.52053539783589
208.76254518539258
177.74338210789327
153.42999842453185
135.26859199222645
122.35570082238489
113.61852519726901
107.98941322537948
104.53202648038824
102.50422946533126
101.3662710857122
100.75393660181155
100.43734523758762
100.27990569252212
100.20494788122221
100.17203550502079
100.16204582792703
100.16920889014229
100.19864069057553
100.26884108036334
100.41971145823871
100.72756142151796
101.32889604502138
102.453860972985
104.46727020378626
107.9096834216031
113.5239098168733
122.24641666879116
135.14354308588705
153.2839831719938
177.5619103675124
208.51201008543853
208.6226847363626
177.63841623698926
153.3414323781312
135.18739775369878
122.27770702289753
113.54187595396071
107.91337648311246
104.45628026288975
102.42867739666309
101.29087311269446
100.67868254087182
100.3622348633315
100.20494783832169
100.13017495771346
100.09752630070014
100.08796397770688
100.09585209199804
100.12649747749167
100.19864062860363
100.35244429195508
100.66444200378629
101.27125489242957
102.40296254884906
104.42408875306226
107.8747094013104
113.49703328136769
122.22696683849036
135.13042619114296
153.27592366884105
177.55776843784514
208.51095719223406
208.55743604345193
177.59003056969138
153.30063752607418
135.15001197685845
122.2418007586019
113.50667536400145
107.87860192702432
104.42184303133293
102.39456262703557
101.25707807925194
100.64520236057389
100.32904933857945
100.17203546213403
100.09752634263387
100.06516464375837
100.0559706841409
100.06439415350481
100.09585205562722
100.16920878801562
100.32474214635351
100.63906162042976
101.24878867824394
102.38391005407246
104.40876009858596
107.86316018904316
113.48906438211095
122.22215483409052
135.12825123249
153.2758985300754
177.55973712979753
208.51536550276697
208.52799578779516
177.56853876328242
153.28271246455623
135.1337572057334
122.22644279337177
113.49203215899158
107.86461321594814
104.40856611019994
102.38202209349387
101.24527139092619
100.63408588856498
100.31854339345249
100.16204583843582
100.08796391339641
100.05597068481558
100.04713526757709
100.05597070112235
100.08796393799389
100.16204594582247
100.3185435375313
100.63408571132122
101.24527208342802
102.38202136238411
104.40856778455111
107.86461553989984
113.49203010395166
122.22645045678375
135.13375037673464
153.28272912654919
177.56850750560434
208.52799756484166
208.5153947587148
177.5597176382025
153.27591982364095
135.12826885109274
122.22215245804594
113.4890718258821
107.8631603662453
104.40876219533838
102.38391004646773
101.24878944201748
100.63906212221443
100.32474213590548
100.16920903337001
100.09585207397348
100.0643941695627
100.05597071370471
100.0651646703189
100.09752626410858
100.17203550232225
100.32904910945366
100.64520197561619
101.25707806831713
102.39456137545682
104.4218427900798
107.8785969492363
113.50667654240976
122.24178769097159
135.14999497042416
153.3006475665818
177.58999531045245
208.55742839095342
208.51098926219382
177.55774709990368
153.27593270921068
135.1304143725479
122.22696945294958
113.4970291423573
107.87470639474833
104.42408988587431
102.40296124797663
101.2712552042605
100.66444171621171
100.3524440779281
100.1986405750031
100.12649744026913
100.09585212089964
100.08796398710453
100.09752631053888
100.13017500802871
100.20494790416225
100.36223476081393
100.6786828829206
101.29087264859676
102.42867825176869
104.45628142525398
107.91337482557618
113.54188020601141
122.27770079767217
135.1874069202474
153.34140173667674
177.63840815768202
208.62270730863153
208.51197377745413
177.56192277381254
153.28399328849184
135.1435291874746
122.24642045002768
113.52390526279225
107.90968394062133
104.46726840151568
102.4538613568982
101.32889642892388
100.72756109463947
100.41971177858545
100.26884101679066
100.1986406506032
100.16920888439553
100.16204582372423
100.17203547737098
100.20494792524701
100.27990562734541
100.43734516099252
100.75393682771161
101.36627084949376
102.50423014734841
104.53202488731644
107.98941630926684
113.61852004447181
122.35569413183363
135.26860585935992
153.42998054600054
177.74338651600854
208.76258219742698
208.52051419680475
177.5772076903851
153.30852405672425
135.18024277415358
122.2978527782337
113.59196473470904
107.99506721783753
104.56939232806305
102.57098813929538
101.45850021218233
100.86681612354366
100.56591439544067
100.41971180626453
100.35244425199416
100.32474231895657
100.31854372073677
100.32904922774406
100.3622349168751
100.43734536304628
100.59488383981812
100.91155548083954
101.52397424105236
102.6620542493587
104.69008242068442
108.1480059531044
113.77838961837237
122.51864338179726
135.43867562511576
153.61601326841878
177.96354702673156
209.05235726468445
208.54546177427312
177.61840152504183
153.37179869039846
135.27135706185317
122.42139915027626
113.75043353262267
108.18828662238026
104.79462600869913
102.82352042477604
101.73263476752413
101.15683878174269
100.86681582029344
100.72756149770613
100.66444205191254
100.63906156400982
100.63408582552621
100.64520242186062
100.67868291818786
100.75393690605426
100.91155528881575
101.22829300209798
101.84080879589776
102.97909778556584
105.00762778724253
108.46678420328878
114.10013261438701
122.84732233356127
135.78290854173645
153.9936422357375
178.40958866822658
209.63168483646407
208.60969970316359
177.72055854895228
153.5237872065586
135.48343290809805
122.70046269735452
114.09826672010267
108.60131293379638
105.26478354617015
103.34002769973492
102.28403138036383
101.7326343183497
101.45850009154996
101.32889553234315
101.27125455868857
101.24878897959987
101.24527162227956
101.25707827944836
101.29087214094348
101.36627055830611
101.52397367124166
101.84080877761008
102.45352377798595
103.59229909316136
105.62203035741497
109.08408598347016
114.72421223492123
123.48659740619023
136.45491367827051
154.73289480352756
179.28036893991964
210.74656820271233
208.76472066589403
177.95946609285107
153.86801226673364
135.9492514791443
123.29544649157155
114.81958361126469
109.43661010466887
106.19505710878535
104.34358023747615
103.34003289953584
102.82352144971725
102.57098988613451
102.453864404495
102.40296454515287
102.38391343775933
102.38202342899308
102.39456456108363
102.4286799789084
102.50423241369998
102.66205746232352
102.97909955904734
103.59230146398538
104.73226813395024
106.7648626326571
110.2335781333715
115.88865066303242
124.68320103110065
137.71770719093712
156.12546677690986
180.91454541372093
212.8065135047741
209.1170846601655
178.4855890553402
154.60248168074622
136.9132335282647
124.49151105170014
116.23155048448356
111.03372580457047
107.93887444585015
106.19505420450791
105.26478619696209
104.79462938032847
104.5693965926014
104.46727448310794
104.42409061808722
104.40876409992734
104.4085693321956
104.42184694794
104.45628582004412
104.53202693297219
104.69008654131586
105.00762920328049
105.62203255173962
106.7648628239789
108.80408567016626
112.28761429510051
117.97447688700312
126.83440892190029
139.99716420086557
158.6440830141529
183.8556321305683
216.45203439936813
209.87149556096645
179.57566727972582
156.07662725453042
138.78993374606353
126.75521707555752
118.83738206396352
113.91841138256633
111.03372189925396
109.43660939420812
108.60131955037129
108.18829379715129
107.99506543759313
107.90968710252513
107.87470930079748
107.86316446718926
107.86462001179665
107.87860017127937
107.91337905175587
107.98941663487257
108.14800991225366
108.46678428570203
109.08408789412123
110.23358383905239
112.28761314841259
115.80280801829225
121.55459481714841
130.54169163304252
143.94151036617095
163.00749987778923
188.91902542171962
222.61595156220108
211.38820880808294
181.69587213989848
158.8540810333955
142.22172499782346
130.78412361396383
123.36763146937395
118.83737712962953
116.23154956981243
114.81958284723336
114.09826369499918
113.75043445652597
113.59196494799791
113.5239118876512
113.4970360158987
113.48906518861347
113.49203250936246
113.50667694536789
113.5418819925613
113.61851534954945
113.77839131019321
114.1001357904885
114.72420932577306
115.88865187763638
117.97447990168772
121.55459371666562
127.43315340266325
136.65608336985457
150.4723338746358
170.2337137125186
197.2392620627958
232.55144636518787
214.24687559652858
185.56141896194765
163.7604208073874
148.11000267810323
137.522114185833
130.784128110708
126.75521544014781
124.49149226997662
123.29543165982358
122.700463053371
122.4214019968123
122.29785640052577
122.24641135943632
122.2269639443213
122.22214849909139
122.22644606929121
122.24178052652304
122.2776967017095
122.35569205255378
122.5186382888126
122.84731444706767
123.48659260167818
124.68320177204085
126.83440731192267
130.54168553306675
136.65607785908355
146.2944184198353
160.8030137350015
181.65212397829794
210.2624911596248
247.78920094711157
219.29228881087948
192.16200887203317
171.8810651417654
157.58505152478818
148.1100512487107
142.2217358248571
138.78995301494382
136.91325035027728
135.94927362322807
135.48347938347456
135.2713748536994
135.1802652530765
135.14356426455333
135.13045023843532
135.12827133688242
135.13377422757372
135.15003116088246
135.1874285115887
135.26862300363837
135.4387068521479
135.78293392808456
136.4549339610729
137.71773796774167
139.99718701603135
143.94152778123737
150.47234824270205
160.80303896941874
176.396645586556
198.8419902053175
229.6485075827412
269.9905846949347
227.63084438330986
202.72003365281773
184.4722011619903
171.88104342252302
163.76045595447516
158.85410452175276
156.07665823623148
154.60251474527624
153.86800883979635
153.5238187808955
153.37183430465535
153.30856149239924
153.28399786222917
153.27594293958737
153.27593458041486
153.28274537167323
153.30067079867064
153.34143040222477
153.43000157197795
153.616041416023
153.9936624691958
154.73290719211394
156.1254960623978
158.64410217873723
163.0075239670409
170.2337279675849
181.65213951562083
198.84199218302842
223.47342377424053
257.0609497541491
300.68392062330366
240.55867455999018
218.5700773784508
202.72001342042762
192.16199714524893
185.5614536491481
181.6959149349399
179.57565846722423
178.48559055584
177.95947846786953
177.72061218224616
177.61839257934744
177.57720380089248
177.56194119362482
177.55777350037573
177.55974957519916
177.56852572465385
177.5900206225645
177.63842522312387
177.74339529915105
177.9635650812508
178.40959677512552
179.28036681614273
180.91457866574407
183.85564623947005
188.91903986626377
197.23927229020737
210.26249992353254
229.64851437673713
257.06094347796454
293.8564813544059
340.8932705835688
259.6989260862576
240.55864706444348
227.63083101406164
219.29229094105708
214.24686856938123
211.38821138638542
209.87150226300827
209.11710212436677
208.76467477055874
208.60970141703035
208.5454659040569
208.52052163039636
208.51200644719134
208.51095826356288
208.51537370540245
208.52799536782973
208.5574360813001
208.6227065125411
208.7625720966717
209.05235586749043
209.63168811909475
210.74655285273477
212.80652898880828
216.45203598504
222.615946120305
232.55144125490597
247.7892002473193
269.99057594422
300.68389731726234
340.8932526587006
389.98701227737195
