# vtk DataFile Version 2.0
Unstructured Grid Example
ASCII
DATASET UNSTRUCTURED_GRID

POINTS 961 float
0.150000006 -0.00839745998 0
0.146666661 -0.00839745998 0
0.143333331 -0.00839745998 0
0.140000001 -0.00839745998 0
0.13666667 -0.00839745998 0
0.13333334 -0.00839745998 0
0.129999995 -0.00839745998 0
0.126666665 -0.00839745998 0
0.123333335 -0.00839745998 0
0.119999997 -0.00839745998 0
0.116666667 -0.00839745998 0
0.113333337 -0.00839745998 0
0.109999999 -0.00839745998 0
0.106666669 -0.00839745998 0
0.103333332 -0.00839745998 0
0.100000001 -0.00839745998 0
0.0966666639 -0.00839745998 0
0.0933333337 -0.00839745998 0
0.0900000036 -0.00839745998 0
0.086666666 -0.00839745998 0
0.0833333358 -0.00839745998 0
0.0799999982 -0.00839745998 0
0.0766666681 -0.00839745998 0
0.0733333305 -0.00839745998 0
0.0700000003 -0.00839745998 0
0.0666666701 -0.00839745998 0
0.0633333325 -0.00839745998 0
0.0599999987 -0.00839745998 0
0.0566666685 -0.00839745998 0
0.0533333346 -0.00839745998 0
0.0500000007 -0.00839745998 0
0.148333326 -0.0112842107 0
0.144999996 -0.0112842107 0
0.141666666 -0.0112842107 0
0.138333336 -0.0112842107 0
0.135000005 -0.0112842107 0
0.13166666 -0.0112842107 0
0.12833333 -0.0112842107 0
0.125 -0.0112842107 0
0.12166667 -0.0112842107 0
0.118333332 -0.0112842107 0
0.115000002 -0.0112842107 0
0.111666664 -0.0112842107 0
0.108333334 -0.0112842107 0
0.104999997 -0.0112842107 0
0.101666667 -0.0112842107 0
0.0983333364 -0.0112842107 0
0.0949999988 -0.0112842107 0
0.0916666687 -0.0112842107 0
0.088333331 -0.0112842107 0
0.0850000009 -0.0112842107 0
0.0816666633 -0.0112842107 0
0.0783333331 -0.0112842107 0
0.075000003 -0.0112842107 0
0.0716666654 -0.0112842107 0
0.0683333352 -0.0112842107 0
0.0649999976 -0.0112842107 0
0.0616666675 -0.0112842107 0
0.0583333336 -0.0112842107 0
0.0549999997 -0.0112842107 0
0.0516666658 -0.0112842107 0
0.0483333319 -0.0112842107 0
0.146666661 -0.0141709624 0
0.143333331 -0.0141709624 0
0.140000001 -0.0141709624 0
0.13666667 -0.0141709624 0
0.13333334 -0.0141709624 0
0.129999995 -0.0141709624 0
0.126666665 -0.0141709624 0
0.123333335 -0.0141709624 0
0.119999997 -0.0141709624 0
0.116666667 -0.0141709624 0
0.113333337 -0.0141709624 0
0.109999999 -0.0141709624 0
0.106666669 -0.0141709624 0
0.103333332 -0.0141709624 0
0.100000001 -0.0141709624 0
0.0966666639 -0.0141709624 0
0.0933333337 -0.0141709624 0
0.0900000036 -0.0141709624 0
0.086666666 -0.0141709624 0
0.0833333358 -0.0141709624 0
0.0799999982 -0.0141709624 0
0.0766666681 -0.0141709624 0
0.0733333305 -0.0141709624 0
0.0700000003 -0.0141709624 0
0.0666666701 -0.0141709624 0
0.0633333325 -0.0141709624 0
0.0599999987 -0.0141709624 0
0.0566666685 -0.0141709624 0
0.0533333346 -0.0141709624 0
0.0500000007 -0.0141709624 0
0.0466666669 -0.0141709624 0
0.144999996 -0.0170577131 0
0.141666666 -0.0170577131 0
0.138333336 -0.0170577131 0
0.135000005 -0.0170577131 0
0.13166666 -0.0170577131 0
0.12833333 -0.0170577131 0
0.125 -0.0170577131 0
0.12166667 -0.0170577131 0
0.118333332 -0.0170577131 0
0.115000002 -0.0170577131 0
0.111666664 -0.0170577131 0
0.108333334 -0.0170577131 0
0.104999997 -0.0170577131 0
0.101666667 -0.0170577131 0
0.0983333364 -0.0170577131 0
0.0949999988 -0.0170577131 0
0.0916666687 -0.0170577131 0
0.088333331 -0.0170577131 0
0.0850000009 -0.0170577131 0
0.0816666633 -0.0170577131 0
0.0783333331 -0.0170577131 0
0.075000003 -0.0170577131 0
0.0716666654 -0.0170577131 0
0.0683333352 -0.0170577131 0
0.0649999976 -0.0170577131 0
0.0616666675 -0.0170577131 0
0.0583333336 -0.0170577131 0
0.0549999997 -0.0170577131 0
0.0516666658 -0.0170577131 0
0.0483333319 -0.0170577131 0
0.0450000018 -0.0170577131 0
0.143333331 -0.0199444648 0
0.140000001 -0.0199444648 0
0.13666667 -0.0199444648 0
0.13333334 -0.0199444648 0
0.129999995 -0.0199444648 0
0.126666665 -0.0199444648 0
0.123333335 -0.0199444648 0
0.119999997 -0.0199444648 0
0.116666667 -0.0199444648 0
0.113333337 -0.0199444648 0
0.109999999 -0.0199444648 0
0.106666669 -0.0199444648 0
0.103333332 -0.0199444648 0
0.100000001 -0.0199444648 0
0.0966666639 -0.0199444648 0
0.0933333337 -0.0199444648 0
0.0900000036 -0.0199444648 0
0.086666666 -0.0199444648 0
0.0833333358 -0.0199444648 0
0.0799999982 -0.0199444648 0
0.0766666681 -0.0199444648 0
0.0733333305 -0.0199444648 0
0.0700000003 -0.0199444648 0
0.0666666701 -0.0199444648 0
0.0633333325 -0.0199444648 0
0.0599999987 -0.0199444648 0
0.0566666685 -0.0199444648 0
0.0533333346 -0.0199444648 0
0.0500000007 -0.0199444648 0
0.0466666669 -0.0199444648 0
0.043333333 -0.0199444648 0
0.141666666 -0.0228312165 0
0.138333336 -0.0228312165 0
0.135000005 -0.0228312165 0
0.13166666 -0.0228312165 0
0.12833333 -0.0228312165 0
0.125 -0.0228312165 0
0.12166667 -0.0228312165 0
0.118333332 -0.0228312165 0
0.115000002 -0.0228312165 0
0.111666664 -0.0228312165 0
0.108333334 -0.0228312165 0
0.104999997 -0.0228312165 0
0.101666667 -0.0228312165 0
0.0983333364 -0.0228312165 0
0.0949999988 -0.0228312165 0
0.0916666687 -0.0228312165 0
0.088333331 -0.0228312165 0
0.0850000009 -0.0228312165 0
0.0816666633 -0.0228312165 0
0.0783333331 -0.0228312165 0
0.075000003 -0.0228312165 0
0.0716666654 -0.0228312165 0
0.0683333352 -0.0228312165 0
0.0649999976 -0.0228312165 0
0.0616666675 -0.0228312165 0
0.0583333336 -0.0228312165 0
0.0549999997 -0.0228312165 0
0.0516666658 -0.0228312165 0
0.0483333319 -0.0228312165 0
0.0450000018 -0.0228312165 0
0.0416666679 -0.0228312165 0
0.140000001 -0.0257179681 0
0.13666667 -0.0257179681 0
0.13333334 -0.0257179681 0
0.129999995 -0.0257179681 0
0.126666665 -0.0257179681 0
0.123333335 -0.0257179681 0
0.119999997 -0.0257179681 0
0.116666667 -0.0257179681 0
0.113333337 -0.0257179681 0
0.109999999 -0.0257179681 0
0.106666669 -0.0257179681 0
0.103333332 -0.0257179681 0
0.100000001 -0.0257179681 0
0.0966666639 -0.0257179681 0
0.0933333337 -0.0257179681 0
0.0900000036 -0.0257179681 0
0.086666666 -0.0257179681 0
0.0833333358 -0.0257179681 0
0.0799999982 -0.0257179681 0
0.0766666681 -0.0257179681 0
0.0733333305 -0.0257179681 0
0.0700000003 -0.0257179681 0
0.0666666701 -0.0257179681 0
0.0633333325 -0.0257179681 0
0.0599999987 -0.0257179681 0
0.0566666685 -0.0257179681 0
0.0533333346 -0.0257179681 0
0.0500000007 -0.0257179681 0
0.0466666669 -0.0257179681 0
0.043333333 -0.0257179681 0
0.0399999991 -0.0257179681 0
0.138333336 -0.0286047198 0
0.135000005 -0.0286047198 0
0.13166666 -0.0286047198 0
0.12833333 -0.0286047198 0
0.125 -0.0286047198 0
0.12166667 -0.0286047198 0
0.118333332 -0.0286047198 0
0.115000002 -0.0286047198 0
0.111666664 -0.0286047198 0
0.108333334 -0.0286047198 0
0.104999997 -0.0286047198 0
0.101666667 -0.0286047198 0
0.0983333364 -0.0286047198 0
0.0949999988 -0.0286047198 0
0.0916666687 -0.0286047198 0
0.088333331 -0.0286047198 0
0.0850000009 -0.0286047198 0
0.0816666633 -0.0286047198 0
0.0783333331 -0.0286047198 0
0.075000003 -0.0286047198 0
0.0716666654 -0.0286047198 0
0.0683333352 -0.0286047198 0
0.0649999976 -0.0286047198 0
0.0616666675 -0.0286047198 0
0.0583333336 -0.0286047198 0
0.0549999997 -0.0286047198 0
0.0516666658 -0.0286047198 0
0.0483333319 -0.0286047198 0
0.0450000018 -0.0286047198 0
0.0416666679 -0.0286047198 0
0.038333334 -0.0286047198 0
0.13666667 -0.0314914696 0
0.13333334 -0.0314914696 0
0.129999995 -0.0314914696 0
0.126666665 -0.0314914696 0
0.123333335 -0.0314914696 0
0.119999997 -0.0314914696 0
0.116666667 -0.0314914696 0
0.113333337 -0.0314914696 0
0.109999999 -0.0314914696 0
0.106666669 -0.0314914696 0
0.103333332 -0.0314914696 0
0.100000001 -0.0314914696 0
0.0966666639 -0.0314914696 0
0.0933333337 -0.0314914696 0
0.0900000036 -0.0314914696 0
0.086666666 -0.0314914696 0
0.0833333358 -0.0314914696 0
0.0799999982 -0.0314914696 0
0.0766666681 -0.0314914696 0
0.0733333305 -0.0314914696 0
0.0700000003 -0.0314914696 0
0.0666666701 -0.0314914696 0
0.0633333325 -0.0314914696 0
0.0599999987 -0.0314914696 0
0.0566666685 -0.0314914696 0
0.0533333346 -0.0314914696 0
0.0500000007 -0.0314914696 0
0.0466666669 -0.0314914696 0
0.043333333 -0.0314914696 0
0.0399999991 -0.0314914696 0
0.0366666652 -0.0314914696 0
0.135000005 -0.0343782231 0
0.13166666 -0.0343782231 0
0.12833333 -0.0343782231 0
0.125 -0.0343782231 0
0.12166667 -0.0343782231 0
0.118333332 -0.0343782231 0
0.115000002 -0.0343782231 0
0.111666664 -0.0343782231 0
0.108333334 -0.0343782231 0
0.104999997 -0.0343782231 0
0.101666667 -0.0343782231 0
0.0983333364 -0.0343782231 0
0.0949999988 -0.0343782231 0
0.0916666687 -0.0343782231 0
0.088333331 -0.0343782231 0
0.0850000009 -0.0343782231 0
0.0816666633 -0.0343782231 0
0.0783333331 -0.0343782231 0
0.075000003 -0.0343782231 0
0.0716666654 -0.0343782231 0
0.0683333352 -0.0343782231 0
0.0649999976 -0.0343782231 0
0.0616666675 -0.0343782231 0
0.0583333336 -0.0343782231 0
0.0549999997 -0.0343782231 0
0.0516666658 -0.0343782231 0
0.0483333319 -0.0343782231 0
0.0450000018 -0.0343782231 0
0.0416666679 -0.0343782231 0
0.038333334 -0.0343782231 0
0.0350000001 -0.0343782231 0
0.13333334 -0.0372649729 0
0.129999995 -0.0372649729 0
0.126666665 -0.0372649729 0
0.123333335 -0.0372649729 0
0.119999997 -0.0372649729 0
0.116666667 -0.0372649729 0
0.113333337 -0.0372649729 0
0.109999999 -0.0372649729 0
0.106666669 -0.0372649729 0
0.103333332 -0.0372649729 0
0.100000001 -0.0372649729 0
0.0966666639 -0.0372649729 0
0.0933333337 -0.0372649729 0
0.0900000036 -0.0372649729 0
0.086666666 -0.0372649729 0
0.0833333358 -0.0372649729 0
0.0799999982 -0.0372649729 0
0.0766666681 -0.0372649729 0
0.0733333305 -0.0372649729 0
0.0700000003 -0.0372649729 0
0.0666666701 -0.0372649729 0
0.0633333325 -0.0372649729 0
0.0599999987 -0.0372649729 0
0.0566666685 -0.0372649729 0
0.0533333346 -0.0372649729 0
0.0500000007 -0.0372649729 0
0.0466666669 -0.0372649729 0
0.043333333 -0.0372649729 0
0.0399999991 -0.0372649729 0
0.0366666652 -0.0372649729 0
0.0333333351 -0.0372649729 0
0.13166666 -0.0401517227 0
0.12833333 -0.0401517227 0
0.125 -0.0401517227 0
0.12166667 -0.0401517227 0
0.118333332 -0.0401517227 0
0.115000002 -0.0401517227 0
0.111666664 -0.0401517227 0
[...]
POINT_DATA 961
SCALARS Temp float 1
LOOKUP_TABLE default
207.23332193457725
166.63680396520078
148.49694167863618
142.4079716532019
140.59967994692798
140.09436905219704
139.95819455526322
139.9223736821759
139.9131203567922
139.91076212528156
139.91016511989747
139.91001958624747
139.9099829517055
139.90997363356396
139.90997369667875
139.90997005273147
139.90997003560025
139.90996787558493
139.90997064757977
139.90997065205798
139.90997106865078
139.90997518768228
139.90998401833428
139.91006164905525
139.9105576363447
139.91373061842705
139.93359763228003
140.05525497751876
140.77299957709803
144.71237636424036
161.3939196255704
166.63682033440227
132.486099835719
119.93455479788501
115.97212716514856
114.82416220980302
114.50716691564391
114.42232606069025
114.40011806655933
114.39440035609474
114.39294710429718
114.39258252256681
114.39249033696758
114.39246749665045
114.39246224900437
114.39245873689735
114.39246018929728
114.39246042334273
114.39246134677892
114.3924603877677
114.39246043442493
114.39246150061143
114.3924643457912
114.39249901913911
114.39271032872824
114.39404443939303
114.40232589802338
114.45251480651585
114.74466458187939
116.32885178995816
123.43565588553955
144.7123869995433
148.49693026401138
119.93455682500863
109.23525041647792
105.85121456753247
104.86361060131158
104.58913295350126
104.51529175444495
104.4958848204072
104.49087173678934
104.48959401198333
104.48927303614909
104.48919255808126
104.48917258082089
104.48916761236687
104.4891668321645
104.48916603543928
104.4891654766788
104.48916623588735
104.48916620177656
104.48916650060785
104.48916831049685
104.4891815564293
104.48926170644154
104.4897620348493
104.49281482053209
104.51087708262747
104.61308934584763
105.15061077300535
107.58568096540844
116.32884351654904
140.7729988911047
142.40796543491808
115.97213252366039
105.85121965064687
102.6123643660654
101.66140494850333
101.39605465655022
101.32447281896523
101.3056216467539
101.3007457931796
101.29950248865771
101.2991886712682
101.29911024514959
101.29909079382682
101.29908581111899
101.29908487630516
101.29908456131284
101.29908471759475
101.29908454870268
101.29908464035263
101.29908531928588
101.29908970239849
101.2991183945629
101.29929166627917
101.30032305437727
101.30625982386613
101.33884327159905
101.5051307482415
102.25648772732698
105.15061343537894
114.74467203212475
140.05525161983977
140.59968368590464
114.8241668776988
104.86361482850386
101.66140943330286
100.71882929250134
100.45543095470103
100.38430837533757
100.3655663284025
100.36071665191757
100.35947945976503
100.3591673282345
100.35908930245087
100.35906994869451
100.3590652441912
100.35906401059641
100.3590636907957
100.35906369674952
100.35906371060298
100.35906394308593
100.35906547748321
100.35907500005864
100.35913125746659
100.35945801416541
100.36128831028458
100.37104518707531
100.41954949526334
100.63734630768948
101.50512983824069
104.61308899484455
114.4525130847813
139.9336027844718
140.09436767539776
114.50717535841412
104.58913851241658
101.3960511482595
100.45542994386456
100.19245638001924
100.12142847704091
100.10270805801598
100.09786346057003
100.09662734722556
100.09631550277075
100.09623755544007
100.09621820941291
100.09621346237023
100.09621229278383
100.09621203064395
100.09621195906516
100.09621202083476
100.09621251369055
100.09621548992513
100.09623292694148
100.0963315542287
100.09686961107647
100.09966320382905
100.11324459562022
100.17380032574373
100.41954944064875
101.33884359946637
104.51087966400841
114.40231524269967
139.91372241107572
139.95818930291003
114.42233284900506
104.51530166062294
101.32446702200198
100.38430731165828
100.12142838386681
100.05042036011173
100.03170435890934
100.02686070711519
100.02562482772517
100.02531303935523
100.02523510478309
100.02521577855981
100.02521100947065
100.0252098403
100.02520956476373
100.0252095205007
100.02520965801405
100.02521056179344
100.02521574610687
100.02524438723955
100.0253968917268
100.02617040137253
100.02986057453435
100.04620252376922
100.1132445458212
100.3710449353378
101.30625907504614
104.49281285366102
114.39404178938416
139.9105664901281
139.92237848839963
114.40012349023908
104.49586845955102
101.30561678651728
100.365565796218
100.10270821887832
100.03170435046788
100.01298924341263
100.00814576341087
100.0069099317302
100.00659815324744
100.0065202201094
100.00650089050454
100.0064961266864
100.00649496202773
100.00649468399149
100.00649466114788
100.00649491136842
100.00649639776515
100.00650446528255
100.00654647041839
100.00675516351896
100.00773498715574
100.0120474509053
100.02986056281942
100.0996631981928
100.36128831782585
101.30032301252635
104.48975870013358
114.39269842480745
139.91005241145984
139.9131110490551
114.39441079269619
104.49085213930283
101.30074261902155
100.36071671834665
100.09786339851345
100.0268607233491
100.00814578461923
100.00330233586102
100.0020665142536
100.00175473714627
100.00167680561661
100.00165747455479
100.00165271094353
100.00165154612922
100.00165127488945
100.00165128207279
100.00165168330237
100.00165389507904
100.00166519944439
100.0017203578038
100.00197584206359
100.00309421652496
100.00773499384992
100.02617039357386
100.09686956685442
100.35945798162884
101.29929090237341
104.48926225727311
114.39250142147696
139.90999681489802
139.9107596794939
114.39289911332267
104.4895861110316
101.2995023592061
100.35948045935493
100.09662739416329
100.0256248837017
100.00690993602053
100.00206651369673
100.00083069127095
100.00051891550883
100.0004409836989
100.00042165301087
100.00041688993635
100.00041572622501
100.0004154628044
100.00041550820964
100.00041608725176
100.0004190691987
100.0004334062175
100.00049905400203
100.0007850830983
100.00197584044896
100.00675515995735
100.02539689355336
100.09633155635116
100.35913129026399
101.29911648528356
104.48917704898365
114.39245499047993
139.9099646852101
139.91020346122332
114.39255038646158
104.48927237957496
101.29919035211941
100.35916739130388
100.096315597814
100.02531311165465
100.0065981515393
100.00175473874866
100.00051891534929
100.00020713999312
100.00012920805142
100.00010987752563
100.00010511476992
100.00010395311894
100.00010369918974
100.00010378750211
100.00010454712941
100.00010821931082
100.00012488524726
100.0001972129161
100.00049905440022
100.00172035844133
100.00654646761245
100.02524437677373
100.09623289715663
100.35907470438792
101.29908949022735
104.4891695655281
114.39246836173716
139.90996356747414
139.9099905379923
114.39248261124142
104.48919639385245
101.29911323461853
100.35908913425666
100.09623764219292
100.02523508545488
100.00652022002993
100.00167680199348
100.00044098370316
100.00012920821196
100.00005127620703
100.00003194584092
100.0000271835763
100.00002602427571
100.00002578056835
100.00002591064307
100.00002682577073
100.00003101097651
100.00004912819456
100.00012488546393
100.00043340658331
100.00166519847868
100.00650446977562
100.02521576143937
100.09621559672834
100.35906528070458
101.29908472721708
104.4891671762213
114.39246024933381
139.90998148858654
139.9099808783129
114.39247668852477
104.48918022344095
101.29909045825636
100.35907004718227
100.0962184274571
100.02521575440808
100.00650090082227
100.00165747209172
100.00042165341338
100.00010987742668
100.0000319457992
100.00001261564906
100.00000785406577
100.00000669728306
100.00000646322856
100.00000662810758
100.0000076555276
100.00001215431969
100.00003101091278
100.00010821926918
100.00041906967327
100.0016538923401
100.00649639597354
100.02521055595
100.09621246016538
100.35906387288114
101.29908450387744
104.48916797452796
114.39244505197419
139.90996869561016
139.9099688301285
114.39246723102656
104.48917593488568
101.29908430961264
100.35906520167038
100.0962133415481
100.02521100243486
100.00649611999266
100.00165270970224
100.00041689064427
100.00010511457947
100.00002718355502
100.00000785406172
100.0000030936073
100.0000019394705
100.00000171348088
100.00000190302168
100.00000299801691
100.00000765552088
100.00002682578805
100.00010454708422
100.00041608747101
100.00165168297644
100.00649491707102
100.02520968413724
100.09621197294756
100.35906354344027
101.29908398752397
104.48916500845561
114.39246290307965
139.90996897420402
139.90997544771767
114.39247031467161
104.48916268819394
101.29908412750937
100.35906460709883
100.09621221971813
100.02520988526072
100.00649495695251
100.0016515457232
100.00041572610347
100.00010395306845
100.00002602429969
100.0000066972781
100.00000193947223
100.00000078871948
100.00000056915555
100.00000077379852
100.00000190301958
100.0000066280986
100.00002591061354
100.00010378752067
100.00041550803708
100.00165127989719
100.00649465998254
100.02520950608563
100.09621194010414
100.35906362711745
101.29908447915142
104.48916187801801
114.39245855783382
139.90996676610288
139.90996515986265
114.39246954939937
104.48915946325015
101.29908432504855
100.35906333496204
100.0962119994693
100.02520953690039
100.00649468311592
100.0016512759991
100.00041546243958
100.00010369918878
100.00002578051526
100.00000646322798
100.00000171347796
100.00000056915545
100.00000035575893
100.00000056915594
100.00000171347834
100.00000646323987
100.00002578053824
100.00010369912577
100.00041546314255
100.00165127479156
100.0064946908791
100.02520955019027
100.0962119682088
100.35906362321784
101.29908389934222
104.48916828507217
114.39245566838328
139.90997428056684
139.90997218531845
114.39244105295855
104.48916610449204
101.29908688579506
100.35906348125533
100.09621210952699
100.02520949980568
100.00649466435179
100.00165127975075
100.00041550843918
100.00010378770568
100.00002591060401
100.00000662811885
100.00000190301978
100.000000773799
100.00000056915638
100.00000078872037
100.00000193946823
100.00000669728185
100.00002602425582
100.00010395296817
100.00041572608626
100.00165154419084
100.00649495700418
100.02520983893028
100.09621229092693
100.35906409202676
101.29908320054902
104.48916596204958
114.39245179745603
139.909965980374
139.90999012568028
114.39244857740252
104.4891692772152
101.29908331645755
100.35906361247316
100.09621188986387
100.02520964769454
100.00649492114532
100.00165168029079
100.00041608775936
100.0001045470009
100.00002682574208
100.00000765551955
100.00000299801529
100.00000190302264
100.00000171348162
100.00000193947068
100.00000309361026
100.00000785406756
100.00002718353704
100.00010511473756
100.0004168902289
100.00165271135371
100.00649612329006
100.02521099986839
100.09621344389481
100.35906502622201
101.29908606352605
104.48916533450381
114.3924571428011
139.90997311093656
139.90995314330777
114.39245851400811
104.48917295783976
101.29908263817916
100.35906404547796
100.09621233306186
100.02521055148823
100.00649639073382
100.00165389277332
100.00041907009982
100.00010821915059
100.00003101097204
100.0000121543151
100.00000765552555
100.00000662810676
100.00000646322815
100.00000669728244
100.00000785406931
100.0000126156425
100.00003194579261
100.0001098774908
100.00042165332539
100.00165747355385
100.00650089518852
100.02521579676572
100.09621833150887
100.359069768435
101.2990909411832
104.48917223775608
114.39246590063851
139.90998736174106
139.90997200998888
114.39246967166632
104.48916276978112
101.29908436427164
100.35906489765812
100.09621547016096
100.02521578241266
100.00650446063364
100.00166519983478
100.00043340630349
100.00012488529553
100.00004912818994
100.00003101096848
100.00002682577374
100.00002591065304
100.00002578056939
100.00002602427544
100.00002718357942
100.00003194583242
100.00005127624276
100.00012920809934
100.00044098413957
100.00167680295985
100.00652021893576
100.02523510074272
100.09623750770962
100.35908927970415
101.29910871884434
104.48918975560836
114.39248244392614
139.91001677825446
139.90996791073087
114.39247225900593
104.48916115526458
101.2990898579581
100.35907430755665
100.096232905153
100.02524436068562
100.00654646986088
100.00172036020622
100.00049905396658
100.00019721315768
100.00012488526323
100.00010821930486
100.000104547114
100.00010378749396
100.00010369919298
100.00010395314412
100.00010511475962
100.00010987752896
100.00012920806935
100.00020713996462
100.00051891572988
100.00175473696714
100.00659815915934
100.02531306467006
100.09631544028153
100.35916729722759
101.29918772358393
104.4892720908494
114.39258092720172
139.91016311087887
139.9099591297523
114.3924345084295
104.48917597675586
101.29911552852032
100.35913094085385
100.0963316479319
100.02539685990688
100.00675516540711
100.00197583954989
100.00078508251066
100.00049905395231
100.00043340615795
100.00041906920228
100.00041608741262
100.00041550822745
100.0004154627922
100.00041572625241
100.00041688988217
100.00042165301771
100.00044098367798
100.00051891566737
100.00083069140021
100.00206651259565
100.00690993548805
100.02562483219391
100.09662741283601
100.35947928545755
101.29950198996058
104.48959636324189
114.39295218838384
139.91077568425487
139.9100133596974
114.39249167086768
104.48926871522947
101.2992909476992
100.3594583342053
100.09686958444853
100.02617042550828
100.00773500911895
100.00309421942582
100.00197584654313
100.0017203617177
100.00166520276379
100.00165389816684
100.00165168650565
100.00165128545797
100.00165127859023
100.00165154929975
100.00165271435371
100.00165747794253
100.00167680881323
100.00175474065944
100.0020665166228
100.00330233890284
100.00814576753575
100.02686066575097
100.0978633630367
100.360716214907
101.30074422528408
104.4908689534319
114.39438420918209
139.91310789796643
139.91005132869893
114.3927136598049
104.48975982607328
101.30032279573435
100.36128890171693
100.09966315704716
100.02986061503844
100.01204746633263
100.00773499948654
100.00675517618616
100.00654648301283
100.00650447850934
100.00649641359088
100.00649492503406
100.0064946742907
100.00649469763229
100.00649497454422
100.00649614002937
100.00650090398969
100.00652023430074
100.00659816626654
100.00690994460405
100.00814577557256
100.01298923837938
100.03170436995389
100.10270797060497
100.36556603815771
101.30562068268348
104.49588353516899
114.40011677659564
139.92237306075864
139.91055575283045
114.39405544845772
104.4928108165008
101.30625963066691
100.37104485162389
100.11324464334612
100.04620258457575
100.02986059616356
100.02617043031286
100.02539692611894
100.02524441290659
100.02521576865719
100.02521058598016
100.02520968465738
100.02520955139632
100.02520958799661
100.02520986750731
100.0252110364595
100.02521580306868
100.02523513355969
100.02531306560188
100.02562485454365
100.02686072685883
100.03170438205248
100.05042042168283
100.12142843877521
100.38430824568675
101.32447275983512
104.51529111355215
114.42232475590507
139.95819041601717
139.9137250489873
114.4023054849223
104.51087531211527
101.33884467930208
100.41954907031143
100.17380041244076
100.11324460960915
100.09966320424867
100.0968696021875
100.09633154601327
100.09623292882715
100.09621553013395
100.09621252237102
100.0962120203693
100.09621196503801
100.09621202321314
100.09621229769199
100.09621346889655
100.0962182250965
100.09623755527315
100.09631551082465
100.09662736124615
100.09786344928898
100.10270807559583
100.12142845619383
100.19245657267093
100.45543132654413
101.39605575818328
104.5891348963868
114.50716584866845
140.0943663381426
139.93360168116783
114.45249729518719
104.61308805473189
101.50512860807646
100.63734607247326
100.41954924368333
100.371044821115
100.3612879712746
100.35945778463386
100.35913091557887
100.35907462833552
100.35906511748672
100.35906360721195
100.35906343191292
100.35906332065645
100.35906337615229
100.35906369028152
100.35906488786522
100.35906964468981
100.35908896853198
100.35916700033209
100.35947908943163
100.36071637339926
100.36556602510444
100.38430799576315
100.45543096833808
100.7188306815111
101.66140534073995
104.86360935555967
114.82416124888404
140.59969222009812
140.05525611893432
114.74467402234554
105.15062271512963
102.25648974583615
101.50513334806766
101.3388457877247
101.30626210383518
101.30032517706017
101.29929377213027
101.29912068208561
101.29909245467329
101.29908763068612
101.2990868518311
101.2990868303213
101.29908689043576
101.2990868762615
101.29908718471052
101.29908823780507
101.29909300371514
101.29911257697448
101.29919106865141
101.29950461879953
101.30074805850273
101.30562388718498
101.32447519646382
101.39605778975779
101.66140786360603
102.61236227275361
105.85120992858693
115.9721115170485
142.4079608491159
140.77300411142434
116.32886045876174
107.58568685234808
105.15061714210508
104.61309568936589
104.51088270044824
104.4928205740345
104.48976898282014
104.48926766012927
104.48918737284086
104.48917377756001
104.48917232233016
104.48917266941872
104.4891717574945
104.48917176705585
104.48917209592092
104.48917257746614
104.48917374857848
104.48917852832878
104.48919857859525
104.48927855089285
104.48960057223596
104.49087779776353
104.49589013659819
104.51529833009711
104.5891390294151
104.86361397522687
105.85121596007143
109.23524596033839
119.93454751380962
148.496940787986
144.71238555801656
123.43567275076107
116.32885570776912
114.74467064199261
114.4525219784983
114.40233153184194
114.39404905581978
114.39271423434695
114.39250561775782
114.3924733555006
114.39246717058913
114.39246564328086
114.3924657175476
114.392466989653
114.39246623131429
114.392466121328
114.39246553442807
114.39246715402163
114.39247377488097
114.39249668941311
114.39258754194816
114.39295234841002
114.39440626547295
114.40012525512883
114.42233477248554
114.50717184404657
114.82416344557912
115.9721289447683
119.934551464729
132.48610243210808
166.6368018098459
161.3939308883047
144.71237280846756
140.7730000458146
140.05525751601814
139.9335958502736
139.91373090214856
139.91056046539742
139.91006546952303
139.9099859158792
139.90997091486142
139.9099712602556
139.90997246105383
139.90997153243606
139.90997005326105
139.90997115782486
139.90997110063486
139.90997303597257
139.90997573515497
139.9099835939612
139.91001888330368
139.91016781954656
139.91076381478626
139.91312176822194
139.92237519644473
139.95818910752016
140.09436711972552
140.5996844182407
142.40796825586528
148.49693466004692
166.63679044671613
207.23308221956603
