# vtk DataFile Version 2.0
Unstructured Grid Example
ASCII
DATASET UNSTRUCTURED_GRID

POINTS 961 float
0.150000006 -0.00839745998 0
0.146666661 -0.00839745998 0
0.143333331 -0.00839745998 0
0.140000001 -0.00839745998 0
0.13666667 -0.00839745998 0
0.13333334 -0.00839745998 0
0.129999995 -0.00839745998 0
0.126666665 -0.00839745998 0
0.123333335 -0.00839745998 0
0.119999997 -0.00839745998 0
0.116666667 -0.00839745998 0
0.113333337 -0.00839745998 0
0.109999999 -0.00839745998 0
0.106666669 -0.00839745998 0
0.103333332 -0.00839745998 0
0.100000001 -0.00839745998 0
0.0966666639 -0.00839745998 0
0.0933333337 -0.00839745998 0
0.0900000036 -0.00839745998 0
0.086666666 -0.00839745998 0
0.0833333358 -0.00839745998 0
0.0799999982 -0.00839745998 0
0.0766666681 -0.00839745998 0
0.0733333305 -0.00839745998 0
0.0700000003 -0.00839745998 0
0.0666666701 -0.00839745998 0
0.0633333325 -0.00839745998 0
0.0599999987 -0.00839745998 0
0.0566666685 -0.00839745998 0
0.0533333346 -0.00839745998 0
0.0500000007 -0.00839745998 0
0.148333326 -0.0112842107 0
0.144999996 -0.0112842107 0
0.141666666 -0.0112842107 0
0.138333336 -0.0112842107 0
0.135000005 -0.0112842107 0
0.13166666 -0.0112842107 0
0.12833333 -0.0112842107 0
0.125 -0.0112842107 0
0.12166667 -0.0112842107 0
0.118333332 -0.0112842107 0
0.115000002 -0.0112842107 0
0.111666664 -0.0112842107 0
0.108333334 -0.0112842107 0
0.104999997 -0.0112842107 0
0.101666667 -0.0112842107 0
0.0983333364 -0.0112842107 0
0.0949999988 -0.0112842107 0
0.0916666687 -0.0112842107 0
0.088333331 -0.0112842107 0
0.0850000009 -0.0112842107 0
0.0816666633 -0.0112842107 0
0.0783333331 -0.0112842107 0
0.075000003 -0.0112842107 0
0.0716666654 -0.0112842107 0
0.0683333352 -0.0112842107 0
0.0649999976 -0.0112842107 0
0.0616666675 -0.0112842107 0
0.0583333336 -0.0112842107 0
0.0549999997 -0.0112842107 0
0.0516666658 -0.0112842107 0
0.0483333319 -0.0112842107 0
0.146666661 -0.0141709624 0
0.143333331 -0.0141709624 0
0.140000001 -0.0141709624 0
0.13666667 -0.0141709624 0
0.13333334 -0.0141709624 0
0.129999995 -0.0141709624 0
0.126666665 -0.0141709624 0
0.123333335 -0.0141709624 0
0.119999997 -0.0141709624 0
0.116666667 -0.0141709624 0
0.113333337 -0.0141709624 0
0.109999999 -0.0141709624 0
0.106666669 -0.0141709624 0
0.103333332 -0.0141709624 0
0.100000001 -0.0141709624 0
0.0966666639 -0.0141709624 0
0.0933333337 -0.0141709624 0
0.0900000036 -0.0141709624 0
0.086666666 -0.0141709624 0
0.0833333358 -0.0141709624 0
0.0799999982 -0.0141709624 0
0.0766666681 -0.0141709624 0
0.0733333305 -0.0141709624 0
0.0700000003 -0.0141709624 0
0.0666666701 -0.0141709624 0
0.0633333325 -0.0141709624 0
0.0599999987 -0.0141709624 0
0.0566666685 -0.0141709624 0
0.0533333346 -0.0141709624 0
0.0500000007 -0.0141709624 0
0.0466666669 -0.0141709624 0
0.144999996 -0.0170577131 0
0.141666666 -0.0170577131 0
0.138333336 -0.0170577131 0
0.135000005 -0.0170577131 0
0.13166666 -0.0170577131 0
0.12833333 -0.0170577131 0
0.125 -0.0170577131 0
0.12166667 -0.0170577131 0
0.118333332 -0.0170577131 0
0.115000002 -0.0170577131 0
0.111666664 -0.0170577131 0
0.108333334 -0.0170577131 0
0.104999997 -0.0170577131 0
0.101666667 -0.0170577131 0
0.0983333364 -0.0170577131 0
0.0949999988 -0.0170577131 0
0.0916666687 -0.0170577131 0
0.088333331 -0.0170577131 0
0.0850000009 -0.0170577131 0
0.0816666633 -0.0170577131 0
0.0783333331 -0.0170577131 0
0.075000003 -0.0170577131 0
0.0716666654 -0.0170577131 0
0.0683333352 -0.0170577131 0
0.0649999976 -0.0170577131 0
0.0616666675 -0.0170577131 0
0.0583333336 -0.0170577131 0
0.0549999997 -0.0170577131 0
0.0516666658 -0.0170577131 0
0.0483333319 -0.0170577131 0
0.0450000018 -0.0170577131 0
0.143333331 -0.0199444648 0
0.140000001 -0.0199444648 0
0.13666667 -0.0199444648 0
0.13333334 -0.0199444648 0
0.129999995 -0.0199444648 0
0.126666665 -0.0199444648 0
0.123333335 -0.0199444648 0
0.119999997 -0.0199444648 0
0.116666667 -0.0199444648 0
0.113333337 -0.0199444648 0
0.109999999 -0.0199444648 0
0.106666669 -0.0199444648 0
0.103333332 -0.0199444648 0
0.100000001 -0.0199444648 0
0.0966666639 -0.0199444648 0
0.0933333337 -0.0199444648 0
0.0900000036 -0.0199444648 0
0.086666666 -0.0199444648 0
0.0833333358 -0.0199444648 0
0.0799999982 -0.0199444648 0
0.0766666681 -0.0199444648 0
0.0733333305 -0.0199444648 0
0.0700000003 -0.0199444648 0
0.0666666701 -0.0199444648 0
0.0633333325 -0.0199444648 0
0.0599999987 -0.0199444648 0
0.0566666685 -0.0199444648 0
0.0533333346 -0.0199444648 0
0.0500000007 -0.0199444648 0
0.0466666669 -0.0199444648 0
0.043333333 -0.0199444648 0
0.141666666 -0.0228312165 0
0.138333336 -0.0228312165 0
0.135000005 -0.0228312165 0
0.13166666 -0.0228312165 0
0.12833333 -0.0228312165 0
0.125 -0.0228312165 0
0.12166667 -0.0228312165 0
0.118333332 -0.0228312165 0
0.115000002 -0.0228312165 0
0.111666664 -0.0228312165 0
0.108333334 -0.0228312165 0
0.104999997 -0.0228312165 0
0.101666667 -0.0228312165 0
0.0983333364 -0.0228312165 0
0.0949999988 -0.0228312165 0
0.0916666687 -0.0228312165 0
0.088333331 -0.0228312165 0
0.0850000009 -0.0228312165 0
0.0816666633 -0.0228312165 0
0.0783333331 -0.0228312165 0
0.075000003 -0.0228312165 0
0.0716666654 -0.0228312165 0
0.0683333352 -0.0228312165 0
0.0649999976 -0.0228312165 0
0.0616666675 -0.0228312165 0
0.0583333336 -0.0228312165 0
0.0549999997 -0.0228312165 0
0.0516666658 -0.0228312165 0
0.0483333319 -0.0228312165 0
0.0450000018 -0.0228312165 0
0.0416666679 -0.0228312165 0
0.140000001 -0.0257179681 0
0.13666667 -0.0257179681 0
0.13333334 -0.0257179681 0
0.129999995 -0.0257179681 0
0.126666665 -0.0257179681 0
0.123333335 -0.0257179681 0
0.119999997 -0.0257179681 0
0.116666667 -0.0257179681 0
0.113333337 -0.0257179681 0
0.109999999 -0.0257179681 0
0.106666669 -0.0257179681 0
0.103333332 -0.0257179681 0
0.100000001 -0.0257179681 0
0.0966666639 -0.0257179681 0
0.0933333337 -0.0257179681 0
0.0900000036 -0.0257179681 0
0.086666666 -0.0257179681 0
0.0833333358 -0.0257179681 0
0.0799999982 -0.0257179681 0
0.0766666681 -0.0257179681 0
0.0733333305 -0.0257179681 0
0.0700000003 -0.0257179681 0
0.0666666701 -0.0257179681 0
0.0633333325 -0.0257179681 0
0.0599999987 -0.0257179681 0
0.0566666685 -0.0257179681 0
0.0533333346 -0.0257179681 0
0.0500000007 -0.0257179681 0
0.0466666669 -0.0257179681 0
0.043333333 -0.0257179681 0
0.0399999991 -0.0257179681 0
0.138333336 -0.0286047198 0
0.135000005 -0.0286047198 0
0.13166666 -0.0286047198 0
0.12833333 -0.0286047198 0
0.125 -0.0286047198 0
0.12166667 -0.0286047198 0
0.118333332 -0.0286047198 0
0.115000002 -0.0286047198 0
0.111666664 -0.0286047198 0
0.108333334 -0.0286047198 0
0.104999997 -0.0286047198 0
0.101666667 -0.0286047198 0
0.0983333364 -0.0286047198 0
0.0949999988 -0.0286047198 0
0.0916666687 -0.0286047198 0
0.088333331 -0.0286047198 0
0.0850000009 -0.0286047198 0
0.0816666633 -0.0286047198 0
0.0783333331 -0.0286047198 0
0.075000003 -0.0286047198 0
0.0716666654 -0.0286047198 0
0.0683333352 -0.0286047198 0
0.0649999976 -0.0286047198 0
0.0616666675 -0.0286047198 0
0.0583333336 -0.0286047198 0
0.0549999997 -0.0286047198 0
0.0516666658 -0.0286047198 0
0.0483333319 -0.0286047198 0
0.0450000018 -0.0286047198 0
0.0416666679 -0.0286047198 0
0.038333334 -0.0286047198 0
0.13666667 -0.0314914696 0
0.13333334 -0.0314914696 0
0.129999995 -0.0314914696 0
0.126666665 -0.0314914696 0
0.123333335 -0.0314914696 0
0.119999997 -0.0314914696 0
0.116666667 -0.0314914696 0
0.113333337 -0.0314914696 0
0.109999999 -0.0314914696 0
0.106666669 -0.0314914696 0
0.103333332 -0.0314914696 0
0.100000001 -0.0314914696 0
0.0966666639 -0.0314914696 0
0.0933333337 -0.0314914696 0
0.0900000036 -0.0314914696 0
0.086666666 -0.0314914696 0
0.0833333358 -0.0314914696 0
0.0799999982 -0.0314914696 0
0.0766666681 -0.0314914696 0
0.0733333305 -0.0314914696 0
0.0700000003 -0.0314914696 0
0.0666666701 -0.0314914696 0
0.0633333325 -0.0314914696 0
0.0599999987 -0.0314914696 0
0.0566666685 -0.0314914696 0
0.0533333346 -0.0314914696 0
0.0500000007 -0.0314914696 0
0.0466666669 -0.0314914696 0
0.043333333 -0.0314914696 0
0.0399999991 -0.0314914696 0
0.0366666652 -0.0314914696 0
0.135000005 -0.0343782231 0
0.13166666 -0.0343782231 0
0.12833333 -0.0343782231 0
0.125 -0.0343782231 0
0.12166667 -0.0343782231 0
0.118333332 -0.0343782231 0
0.115000002 -0.0343782231 0
0.111666664 -0.0343782231 0
0.108333334 -0.0343782231 0
0.104999997 -0.0343782231 0
0.101666667 -0.0343782231 0
0.0983333364 -0.0343782231 0
0.0949999988 -0.0343782231 0
0.0916666687 -0.0343782231 0
0.088333331 -0.0343782231 0
0.0850000009 -0.0343782231 0
0.0816666633 -0.0343782231 0
0.0783333331 -0.0343782231 0
0.075000003 -0.0343782231 0
0.0716666654 -0.0343782231 0
0.0683333352 -0.0343782231 0
0.0649999976 -0.0343782231 0
0.0616666675 -0.0343782231 0
0.0583333336 -0.0343782231 0
0.0549999997 -0.0343782231 0
0.0516666658 -0.0343782231 0
0.0483333319 -0.0343782231 0
0.0450000018 -0.0343782231 0
0.0416666679 -0.0343782231 0
0.038333334 -0.0343782231 0
0.0350000001 -0.0343782231 0
0.13333334 -0.0372649729 0
0.129999995 -0.0372649729 0
0.126666665 -0.0372649729 0
0.123333335 -0.0372649729 0
0.119999997 -0.0372649729 0
0.116666667 -0.0372649729 0
0.113333337 -0.0372649729 0
0.109999999 -0.0372649729 0
0.106666669 -0.0372649729 0
0.103333332 -0.0372649729 0
0.100000001 -0.0372649729 0
0.0966666639 -0.0372649729 0
0.0933333337 -0.0372649729 0
0.0900000036 -0.0372649729 0
0.086666666 -0.0372649729 0
0.0833333358 -0.0372649729 0
0.0799999982 -0.0372649729 0
0.0766666681 -0.0372649729 0
0.0733333305 -0.0372649729 0
0.0700000003 -0.0372649729 0
0.0666666701 -0.0372649729 0
0.0633333325 -0.0372649729 0
0.0599999987 -0.0372649729 0
0.0566666685 -0.0372649729 0
0.0533333346 -0.0372649729 0
0.0500000007 -0.0372649729 0
0.0466666669 -0.0372649729 0
0.043333333 -0.0372649729 0
0.0399999991 -0.0372649729 0
0.0366666652 -0.0372649729 0
0.0333333351 -0.0372649729 0
0.13166666 -0.0401517227 0
0.12833333 -0.0401517227 0
0.125 -0.0401517227 0
0.12166667 -0.0401517227 0
0.118333332 -0.0401517227 0
0.115000002 -0.0401517227 0
0.111666664 -0.0401517227 0
[...]
POINT_DATA 961
SCALARS Temp float 1
LOOKUP_TABLE default
437.14984807745174
389.569809750947
348.8025247837522
315.62210752582956
289.63571150230905
270.03855354503656
255.80390937983336
245.84171842722552
239.12036004108643
234.74548642972601
231.99593441738267
230.325658700233
229.34388184587024
228.78495757623548
228.47672648741616
228.3127309541536
228.2306188543017
228.1972089732324
228.19985481124024
228.24367506234097
228.35470696595792
228.58951035377075
229.05191154312735
229.91685958683806
231.45930271075332
234.08289914335742
238.3396798720008
244.9299231280172
254.67453520400517
268.4657261527247
287.4319169258878
389.5698240133536
343.2487793377942
304.91217651831596
274.2665970410998
250.6666182154115
233.157172573086
220.63951301814512
212.01298411642873
206.2788970262341
202.5997852864557
200.3190841128089
198.95170085106074
198.15800444274782
197.71165287851085
197.4687155100448
197.34200156555178
197.28206123944057
197.2648754839286
197.285769688481
197.3593365894524
197.52565588921837
197.86349500937814
198.51095911819428
199.69269817320423
201.75014165389783
205.16761290993512
210.58380911378282
218.77778831599042
230.6226555387693
247.0164271705194
268.4657458919408
348.80247824157783
304.9121545285194
269.0575911291357
240.77373218799406
219.24810001942842
203.44777253237814
192.26102809937314
184.6186759575324
179.57812730432488
176.36615149374373
174.38694213253854
173.2064844237623
172.52441402791771
172.1425257590438
171.9359697114822
171.8300878570757
171.78387055170936
171.77990617263262
171.82051213659707
171.93007635381218
172.16408303503158
172.62547185757182
173.48831324165872
175.02684248827185
177.64478912216742
181.89612387674734
188.4856878972106
198.23835333909847
212.02760393063716
230.62264626023153
254.67454587220956
315.62204870556235
274.2665646691875
240.77373214564417
214.55700016938331
194.73424904262095
180.26039585202156
170.05456756039962
163.10334650676342
158.52806082307072
155.61610713466203
153.82265629410657
152.75291123899362
152.1345522723069
151.78832091548838
151.60163980299657
151.50778736960999
151.47140555454027
151.48030679827065
151.54349353940833
151.69561114152629
152.00839523118913
152.60953305746241
153.7082265738157
155.62439781238598
158.81506567680395
163.88780775498452
171.58952234877864
182.75940286280647
198.23836945355197
218.77780151175088
244.92991462503184
289.63565614562714
250.6665875833177
219.24808265132714
194.73432148760872
176.23603579010194
162.74094243578892
153.22430557553375
146.73669665830658
142.4600998508359
139.73283184758313
138.0492451034661
137.04254509893278
136.4592550002701
136.1322143482657
135.95644879564858
135.87025634888028
135.84231456206308
135.86497459506623
135.95385000087936
136.15404377590724
136.55351185887696
137.30360833781828
138.64535242313684
140.9373613468223
144.67792076468737
150.51073409654492
159.20320306658346
171.58951530023242
188.4856830054628
210.58380763153932
238.33968557652645
270.03849712208216
233.1572113642886
203.44782356590952
180.2603633348941
162.7409295848432
149.93427809224957
140.88029425901263
134.69039731197745
130.59763608245305
127.979525742128
126.35842903313062
125.38632658594938
124.82173962033028
124.50490090915135
124.33545417716886
124.25497411014769
124.23528131591101
124.27290568364775
124.38993334995905
124.64162324531289
125.13111730647564
126.03083452472836
127.60843029245395
130.25249276959434
134.48993636897444
140.98507530388872
150.51073071540574
163.88780915210356
181.8961307855321
205.1675912924429
234.08289379984532
255.80392000774418
220.63953787486815
192.26107678555363
170.05452920955884
153.22428986945292
140.88028995038368
132.12364846027867
126.11712940914862
122.13306209878874
119.57702513692438
117.99017678978042
117.03643431792725
116.48159774746092
116.17027709325693
116.00493385399395
115.92942428853905
115.91820822308662
115.97170305055812
116.11809569911671
116.42194502705287
116.99966860819627
118.04108363124466
119.8343802184672
122.78922439543884
127.45001272266492
134.4899322702541
144.67791228862419
158.81505348099637
177.64478809205102
201.75013979548697
231.45931127539836
245.8417345848129
212.0130121555687
184.6186173970348
163.10331190226324
146.73669682538204
134.69040960157568
126.11712629595235
120.21913513398914
116.29691421168795
113.77491231300307
112.20620068821158
111.26193556541813
110.71215839852155
110.4040315760204
110.24179327603372
110.17101498244682
110.16845537272727
110.23806621916077
110.41348791405706
110.76726211006537
111.42661543270243
112.59466720210538
114.57410485625086
117.78786606855795
122.78922201244266
130.25248927731428
140.93736354771895
155.62439923027347
175.02682759794345
199.69267872123345
229.916849358048
239.1203683059779
206.278931396073
179.5780827443976
158.52804295096203
142.4601026908593
130.59762503440615
122.13305908790679
116.29692317091833
112.40865352844034
109.90468256633999
108.34529695829595
107.40584341397413
106.8587705797256
106.55273694727522
106.3931666594004
106.32699869393895
106.33298611698119
106.41815736206847
106.62074431249752
107.0196898931744
107.7503944916955
109.02534959582681
111.15651884481963
114.57410714753055
119.83438120846215
127.6084298516532
138.64535102343845
153.70822222677995
173.48831686409238
198.51096641408495
229.0519305256465
234.74552535641692
202.59972087307358
176.36612760664048
155.6161029941579
139.73284461304442
127.97952460803097
119.57703146994292
113.77490996069226
109.90468072451448
107.40998408484838
105.85530543029196
104.91832171031018
104.37282915416074
104.06838691792596
103.91126475320758
103.84951586955842
103.86357214830733
103.96299764051294
104.1896486052561
104.62725209352223
105.41693392695224
106.77722313722361
109.02534788418184
112.59466688573914
118.04108322602245
126.03083367939466
137.30360765865657
152.60951499940117
172.62545684977272
197.8634780475367
228.58950198682098
231.99599520739233
200.31903323078353
174.38692820786528
153.82266242862724
138.0492335361553
126.35843022488092
117.99018511419847
112.20620115895514
108.34529925127232
105.85530519996719
104.30302688651302
103.36741101051845
102.82300715155034
102.51993752222026
102.36510282869416
102.30745240288857
102.32876880590716
102.44058438813201
102.68743057415608
103.15635655224712
103.99218070078295
105.41693605249847
107.75039503960075
111.4266138851942
116.9996661673724
125.13111604686618
136.5535089028136
152.00839329472745
172.16408841673484
197.5256643730281
228.35469377329375
230.32559765662631
198.95166736429948
173.20648177648235
152.7529238547918
137.04253511071352
125.38633130289408
117.03642909804218
111.26193663960562
107.40583933380594
104.91832162159461
103.36741272210799
102.43273744834117
101.88926733838912
101.58749567859556
101.43479777064506
101.38081864961246
101.40837059433177
101.53042055307803
101.79334286453074
102.28632544642711
103.15635820431447
104.62725325898008
107.01968910643993
110.76726557359181
116.42194969521772
124.64163076889099
136.15403854257107
151.69560491803472
171.9300777637502
197.35933863793434
228.24368904936614
229.34385198106872
198.15799728082118
172.524430977527
152.13453759721298
136.459257044599
124.82175315343696
116.48159656735925
110.7121630304407
106.85876873007673
104.37283061250777
102.82300618966353
101.88926675412046
101.3468099829768
101.04637837628688
100.89569529883006
100.84492442560376
100.87762016205365
101.00773268625589
101.28282046816717
101.79334145775579
102.68743013292672
104.18965025480593
106.62074135032492
110.41348682459302
116.11809392250966
124.38993079714044
135.95384821032903
151.54349191164354
171.8205190431638
197.28574685730553
228.19985875175246
228.7849332732431
197.71165070904502
172.14254889669348
151.78830796137694
136.13221856534895
124.50489210201923
116.17027781350015
110.40402781632562
106.55273572554238
104.06838909308313
102.51993638241728
101.58749569942586
101.04637822923716
100.74748632922062
100.59878751219708
100.5508186167325
100.58764541677559
100.72385832541853
101.00773246621274
101.53042094098495
102.44058427343185
103.96299867434485
106.41815708930989
110.23806907822758
115.9717078302889
124.27290200440693
135.86497004040925
151.48030159461038
171.77990765280376
197.26487925587986
228.19720809583546
228.47672460724394
197.4687341860078
171.93595515931216
151.60164041735737
135.95646562464518
124.33545236058042
116.00494106337317
110.24179249953886
106.39316660208121
103.91126428878555
102.36510284163822
101.43479818973874
100.89569514083337
100.5987877024575
100.45221881010076
100.40679475258548
100.4469359517244
100.58764527033753
100.87761979333557
101.4083701199227
102.32876885090539
103.86357143356801
106.33298329535926
110.16845438512942
115.91820643222292
124.23528017856363
135.8423136692202
151.4714051923214
171.7838539785144
197.28205734747186
228.23061039617969
228.3127313447644
197.34202380552784
171.83007516910217
151.50779103241985
135.87024355977226
124.25497406559312
115.92941789206881
110.1710154552412
106.32700016717715
103.84951545628468
102.30745264128434
101.38081763609576
100.84492449715587
100.55081834928643
100.40679475977447
100.36388667424751
100.40679483539836
100.55081845951598
100.844924865526
101.38081808950196
102.30745213625876
103.84951699124244
106.32699868363638
110.17101828921582
115.92942152907712
124.25497087758221
135.87025332199258
151.5077827951669
171.83009234286808
197.3419915792184
228.31273282782698
228.2306410311532
197.2820379996826
171.78387763697648
151.47142567235625
135.8423110510608
124.23529061265317
115.91820687092535
110.16845832645397
106.3329833151512
103.86357334306796
102.32877025687813
101.40837013475813
100.8776207271454
100.58764536495056
100.44693602977249
100.40679489226588
100.45221893079561
100.59878737330227
100.89569530570577
101.4347974996023
102.36510179844551
103.91126434084066
106.39316401735077
110.24179207980248
116.00493338577219
124.33545384826299
135.95644928702674
151.60162055155106
171.9359667720274
197.46869870390557
228.47671856477817
228.19724068369888
197.2648580210385
171.77991752160767
151.48028772502164
135.8649737218818
124.27289625707232
115.971703348182
110.23807110419014
106.41815459819115
103.96299944131809
102.44058349857401
101.53042031340141
101.00773225496354
100.72385817009307
100.5876455485669
100.55081864957971
100.59878755754166
100.74748653026685
101.04637847200452
101.58749536597449
102.51993727002656
104.06838802518342
106.55273740591832
110.40402994299804
116.17027510205197
124.50489837393484
136.1322109605469
151.78831890475143
172.14251729446656
197.71164435295617
228.78495880767213
228.19982184479204
197.28575939342537
171.82052976672244
151.54347621050442
135.95385304003952
124.38992465611878
116.11809500976604
110.4134836427361
106.62074224250767
104.18965114737738
102.68742927042281
101.79334247127068
101.28282023213582
101.00773252339091
100.8776201374345
100.84492441466385
100.89569515907097
101.04637854785165
101.34680974654536
101.88926648815348
102.8230068321883
104.37283001698438
106.85877013530177
110.71216036929613
116.48160146893517
124.8217465037248
136.4592491946065
152.1345555136768
172.52441336535816
198.15800466747697
229.3438925493465
228.24366773314864
197.35934967375837
171.9300584684745
151.69560880965471
136.15403003632719
124.64162416564388
116.42195247884175
110.76726181688797
107.01969029358283
104.62725204556638
103.1563572122751
102.28632508734252
101.79334257888775
101.53042084966856
101.40837061970181
101.38081865355494
101.43479786810047
101.58749578977667
101.88926712243654
102.43273793753617
103.36741198909195
104.91832259177522
107.4058405123494
111.26193453329257
117.03643306061744
125.3863251439713
137.04254281116707
152.75289835208667
173.20647721246723
198.95169293307865
230.32565902424943
228.35470335742116
197.52567424403742
172.16406679862487
152.00839871958883
136.55350022421177
125.13111751634509
116.99966151760486
111.42661526743292
107.75039645435822
105.41693472885268
103.99218237422554
103.15635622116086
102.68743031868773
102.44058430991973
102.32876870897168
102.30745239082802
102.36510295623502
102.51993736622377
102.82300701345989
103.367411363046
104.30302645914537
105.85530601057785
108.3452973710743
112.2062043826027
117.99018024613966
126.35842466505316
138.04924775147683
153.82265097470764
174.38694071877995
200.3190837626339
231.99593084016357
228.58950851812062
197.86345104165127
172.6254609107891
152.6095035452767
137.3035987723428
126.0308376035528
118.04107800923975
112.59466874391588
109.02534615483366
106.77722169806765
105.4169333785808
104.62725161709761
104.18964913724407
103.96299771822402
103.86357213834923
103.84951590962686
103.91126478320713
104.06838679108981
104.3728294253205
104.91832125667197
105.85530604867675
107.40998477108664
109.90467936713146
113.77491275497593
119.57702745005014
127.9795312828111
139.7328272910627
155.6161044543331
176.3661592410924
202.59979638096186
234.74550250820064
229.05195901278876
198.5109585694545
173.4883395993651
153.70822421338198
138.6453638913202
127.60843222497236
119.83439044763985
114.57411531822991
111.15652216912318
109.02535689900134
107.75039848064367
107.01969373265919
106.62074825573023
106.4181611593238
106.33299019691577
106.32700279398797
106.39317044684012
106.55274077235629
106.85877451581733
107.40584666969966
108.34530069627692
109.90468416336428
112.40865783729492
116.29692110596419
122.13305564660726
130.59763480595942
142.4600924283728
158.5280512075439
179.5781229586098
206.27886686905805
239.12034156708063
229.9168430340795
199.6927051498337
175.02683073096713
155.62440247521155
140.9373809689405
130.25249271014818
122.78923357305298
117.7878715760903
114.57411003056052
112.59467309175902
111.42662108755106
110.76726919706388
110.41349427691932
110.23807232820889
110.16846145246778
110.17102098808496
110.24179921726456
110.4040376666249
110.71216397624382
111.26194168114199
112.20620643220848
113.77491644670984
116.29692048150517
120.21913596250339
126.11713372300905
134.6903980604369
146.73669808591038
163.10333535866783
184.61867280508838
212.01297719229117
245.84171838348578
231.45929684612457
201.75015952146612
177.64478422548487
158.81506489884467
144.67791146923918
134.48994157397433
127.45002143958726
122.78922699570208
119.83438875606092
118.04108785418995
116.99967267985149
116.42194926311201
116.11809970582495
115.97170765535624
115.91821284785497
115.92942855661344
116.0049383422623
116.17028159342289
116.48160186429232
117.03643887825503
117.9901802423585
119.57703059319442
122.13306367693018
126.11713089265376
132.12365998326283
140.8802874719028
153.2243022833884
170.05456692498382
192.26102378151
220.63951181960536
255.80392195903485
234.08290205667058
205.1675759991344
181.8961186604434
163.88781690388717
150.51072317682033
140.98507953102526
134.48993384684326
130.2524905463265
127.60842937840233
126.03083353262109
125.13111857566975
124.64162371963705
124.389933460541
124.2729057348684
124.23528127354061
124.2549741768646
124.33545434890425
124.50490089099934
124.82174017249827
125.38632689971882
126.35842879968484
127.9795273935513
130.5976346862328
134.690401343267
140.88028536084565
149.93427963548962
162.74094890233096
180.26040760208804
203.44778798744764
233.15718424352974
270.0384977117032
238.33968267688755
210.5837813749787
188.48567712178405
171.58949633064577
159.2031977177241
150.51072897313003
144.6779085489506
140.93735716834505
138.64534314363277
137.30359896833184
136.5535027283145
136.15403431140805
135.95384148523348
135.86496613702826
135.8423056510304
135.87024784351024
135.95644021382205
136.13220553537897
136.45924661822795
137.04253627734136
138.0492377886479
139.7328222179074
142.46009097344395
146.73669524418753
153.22429389290426
162.7409421523683
176.23605450387632
194.73426077345678
219.24803857678634
250.66655877770884
289.6356506075446
244.929927921244
218.77781700721437
198.23840641441882
182.75942082394963
171.58955270713133
163.88782918992737
158.81508687625478
155.6244200577141
153.70824843300684
152.60955769508578
152.00841889786358
151.69563424140554
151.54351648047884
151.480329576589
151.47142856942466
151.5078103885347
151.60166271748218
151.78834427694113
152.1345751068707
152.75293369023703
153.82267970085
155.61612778490547
158.52808427045298
163.1033587138909
170.05458530000791
180.26042396917535
194.73429193149707
214.55696616583822
240.77369330615565
274.26653441427743
315.62205211508916
254.67455713219138
230.62267971322643
212.02762035831495
198.23838302028105
188.48571650299127
181.89614347588093
177.6448173658188
175.0268646770206
173.48833512577062
172.6254938493505
172.1641044373705
171.93009889502352
171.8205347575429
171.77992825824495
171.78389315650656
171.83011025111537
171.93599183045748
172.1425480955141
172.52443600607776
173.20650710197322
174.38696258860492
176.3661720685705
179.57815205797084
184.6186904077629
192.26104858536547
203.44780369847444
219.2480561389217
240.77369262508296
269.05755052624437
304.91211935271565
348.8024735296747
268.4657488747506
247.0164506135926
230.6226581228981
218.77780404749254
210.58381551807776
205.16761926801692
201.75014924367315
199.69270550771924
198.5109698381813
197.86350465158208
197.52566475438624
197.35934531036503
197.28577824599822
197.26488446974878
197.28207015533494
197.3420104620351
197.46872485767958
197.71166162765655
198.1580131720741
198.95171036686722
200.31909154416007
202.59979484395825
206.27889758558516
212.01298890873443
220.63952529046662
233.15719564398907
250.66657002056138
274.2665378178984
304.9121117484144
343.2487184545164
389.5697270203326
287.43193325961835
268.4657204151855
254.6745424656522
244.92992941345244
238.3396764689956
234.08290489600353
231.4593020183442
229.9168596267061
229.05191162601298
228.58950891421176
228.3547070835552
228.2436751294864
228.19985476665943
228.1972092859703
228.23061892603496
228.31273097910355
228.4767261544479
228.78495760226414
229.34388220984906
230.32565723038934
231.9959332001038
234.74548894776416
239.12035422111418
245.84171689272327
255.80391495612918
270.03849166588134
289.63565287230006
315.62204106642656
348.802449186873
389.569709350547
437.14944059115913
