# vtk DataFile Version 2.0
Unstructured Grid Example
ASCII
DATASET UNSTRUCTURED_GRID

POINTS 961 float
0.150000006 -0.00839745998 0
0.146666661 -0.00839745998 0
0.143333331 -0.00839745998 0
0.140000001 -0.00839745998 0
0.13666667 -0.00839745998 0
0.13333334 -0.00839745998 0
0.129999995 -0.00839745998 0
0.126666665 -0.00839745998 0
0.123333335 -0.00839745998 0
0.119999997 -0.00839745998 0
0.116666667 -0.00839745998 0
0.113333337 -0.00839745998 0
0.109999999 -0.00839745998 0
0.106666669 -0.00839745998 0
0.103333332 -0.00839745998 0
0.100000001 -0.00839745998 0
0.0966666639 -0.00839745998 0
0.0933333337 -0.00839745998 0
0.0900000036 -0.00839745998 0
0.086666666 -0.00839745998 0
0.0833333358 -0.00839745998 0
0.0799999982 -0.00839745998 0
0.0766666681 -0.00839745998 0
0.0733333305 -0.00839745998 0
0.0700000003 -0.00839745998 0
0.0666666701 -0.00839745998 0
0.0633333325 -0.00839745998 0
0.0599999987 -0.00839745998 0
0.0566666685 -0.00839745998 0
0.0533333346 -0.00839745998 0
0.0500000007 -0.00839745998 0
0.148333326 -0.0112842107 0
0.144999996 -0.0112842107 0
0.141666666 -0.0112842107 0
0.138333336 -0.0112842107 0
0.135000005 -0.0112842107 0
0.13166666 -0.0112842107 0
0.12833333 -0.0112842107 0
0.125 -0.0112842107 0
0.12166667 -0.0112842107 0
0.118333332 -0.0112842107 0
0.115000002 -0.0112842107 0
0.111666664 -0.0112842107 0
0.108333334 -0.0112842107 0
0.104999997 -0.0112842107 0
0.101666667 -0.0112842107 0
0.0983333364 -0.0112842107 0
0.0949999988 -0.0112842107 0
0.0916666687 -0.0112842107 0
0.088333331 -0.0112842107 0
0.0850000009 -0.0112842107 0
0.0816666633 -0.0112842107 0
0.0783333331 -0.0112842107 0
0.075000003 -0.0112842107 0
0.0716666654 -0.0112842107 0
0.0683333352 -0.0112842107 0
0.0649999976 -0.0112842107 0
0.0616666675 -0.0112842107 0
0.0583333336 -0.0112842107 0
0.0549999997 -0.0112842107 0
0.0516666658 -0.0112842107 0
0.0483333319 -0.0112842107 0
0.146666661 -0.0141709624 0
0.143333331 -0.0141709624 0
0.140000001 -0.0141709624 0
0.13666667 -0.0141709624 0
0.13333334 -0.0141709624 0
0.129999995 -0.0141709624 0
0.126666665 -0.0141709624 0
0.123333335 -0.0141709624 0
0.119999997 -0.0141709624 0
0.116666667 -0.0141709624 0
0.113333337 -0.0141709624 0
0.109999999 -0.0141709624 0
0.106666669 -0.0141709624 0
0.103333332 -0.0141709624 0
0.100000001 -0.0141709624 0
0.0966666639 -0.0141709624 0
0.0933333337 -0.0141709624 0
0.0900000036 -0.0141709624 0
0.086666666 -0.0141709624 0
0.0833333358 -0.0141709624 0
0.0799999982 -0.0141709624 0
0.0766666681 -0.0141709624 0
0.0733333305 -0.0141709624 0
0.0700000003 -0.0141709624 0
0.0666666701 -0.0141709624 0
0.0633333325 -0.0141709624 0
0.0599999987 -0.0141709624 0
0.0566666685 -0.0141709624 0
0.0533333346 -0.0141709624 0
0.0500000007 -0.0141709624 0
0.0466666669 -0.0141709624 0
0.144999996 -0.0170577131 0
0.141666666 -0.0170577131 0
0.138333336 -0.0170577131 0
0.135000005 -0.0170577131 0
0.13166666 -0.0170577131 0
0.12833333 -0.0170577131 0
0.125 -0.0170577131 0
0.12166667 -0.0170577131 0
0.118333332 -0.0170577131 0
0.115000002 -0.0170577131 0
0.111666664 -0.0170577131 0
0.108333334 -0.0170577131 0
0.104999997 -0.0170577131 0
0.101666667 -0.0170577131 0
0.0983333364 -0.0170577131 0
0.0949999988 -0.0170577131 0
0.0916666687 -0.0170577131 0
0.088333331 -0.0170577131 0
0.0850000009 -0.0170577131 0
0.0816666633 -0.0170577131 0
0.0783333331 -0.0170577131 0
0.075000003 -0.0170577131 0
0.0716666654 -0.0170577131 0
0.0683333352 -0.0170577131 0
0.0649999976 -0.0170577131 0
0.0616666675 -0.0170577131 0
0.0583333336 -0.0170577131 0
0.0549999997 -0.0170577131 0
0.0516666658 -0.0170577131 0
0.0483333319 -0.0170577131 0
0.0450000018 -0.0170577131 0
0.143333331 -0.0199444648 0
0.140000001 -0.0199444648 0
0.13666667 -0.0199444648 0
0.13333334 -0.0199444648 0
0.129999995 -0.0199444648 0
0.126666665 -0.0199444648 0
0.123333335 -0.0199444648 0
0.119999997 -0.0199444648 0
0.116666667 -0.0199444648 0
0.113333337 -0.0199444648 0
0.109999999 -0.0199444648 0
0.106666669 -0.0199444648 0
0.103333332 -0.0199444648 0
0.100000001 -0.0199444648 0
0.0966666639 -0.0199444648 0
0.0933333337 -0.0199444648 0
0.0900000036 -0.0199444648 0
0.086666666 -0.0199444648 0
0.0833333358 -0.0199444648 0
0.0799999982 -0.0199444648 0
0.0766666681 -0.0199444648 0
0.0733333305 -0.0199444648 0
0.0700000003 -0.0199444648 0
0.0666666701 -0.0199444648 0
0.0633333325 -0.0199444648 0
0.0599999987 -0.0199444648 0
0.0566666685 -0.0199444648 0
0.0533333346 -0.0199444648 0
0.0500000007 -0.0199444648 0
0.0466666669 -0.0199444648 0
0.043333333 -0.0199444648 0
0.141666666 -0.0228312165 0
0.138333336 -0.0228312165 0
0.135000005 -0.0228312165 0
0.13166666 -0.0228312165 0
0.12833333 -0.0228312165 0
0.125 -0.0228312165 0
0.12166667 -0.0228312165 0
0.118333332 -0.0228312165 0
0.115000002 -0.0228312165 0
0.111666664 -0.0228312165 0
0.108333334 -0.0228312165 0
0.104999997 -0.0228312165 0
0.101666667 -0.0228312165 0
0.0983333364 -0.0228312165 0
0.0949999988 -0.0228312165 0
0.0916666687 -0.0228312165 0
0.088333331 -0.0228312165 0
0.0850000009 -0.0228312165 0
0.0816666633 -0.0228312165 0
0.0783333331 -0.0228312165 0
0.075000003 -0.0228312165 0
0.0716666654 -0.0228312165 0
0.0683333352 -0.0228312165 0
0.0649999976 -0.0228312165 0
0.0616666675 -0.0228312165 0
0.0583333336 -0.0228312165 0
0.0549999997 -0.0228312165 0
0.0516666658 -0.0228312165 0
0.0483333319 -0.0228312165 0
0.0450000018 -0.0228312165 0
0.0416666679 -0.0228312165 0
0.140000001 -0.0257179681 0
0.13666667 -0.0257179681 0
0.13333334 -0.0257179681 0
0.129999995 -0.0257179681 0
0.126666665 -0.0257179681 0
0.123333335 -0.0257179681 0
0.119999997 -0.0257179681 0
0.116666667 -0.0257179681 0
0.113333337 -0.0257179681 0
0.109999999 -0.0257179681 0
0.106666669 -0.0257179681 0
0.103333332 -0.0257179681 0
0.100000001 -0.0257179681 0
0.0966666639 -0.0257179681 0
0.0933333337 -0.0257179681 0
0.0900000036 -0.0257179681 0
0.086666666 -0.0257179681 0
0.0833333358 -0.0257179681 0
0.0799999982 -0.0257179681 0
0.0766666681 -0.0257179681 0
0.0733333305 -0.0257179681 0
0.0700000003 -0.0257179681 0
0.0666666701 -0.0257179681 0
0.0633333325 -0.0257179681 0
0.0599999987 -0.0257179681 0
0.0566666685 -0.0257179681 0
0.0533333346 -0.0257179681 0
0.0500000007 -0.0257179681 0
0.0466666669 -0.0257179681 0
0.043333333 -0.0257179681 0
0.0399999991 -0.0257179681 0
0.138333336 -0.0286047198 0
0.135000005 -0.0286047198 0
0.13166666 -0.0286047198 0
0.12833333 -0.0286047198 0
0.125 -0.0286047198 0
0.12166667 -0.0286047198 0
0.118333332 -0.0286047198 0
0.115000002 -0.0286047198 0
0.111666664 -0.0286047198 0
0.108333334 -0.0286047198 0
0.104999997 -0.0286047198 0
0.101666667 -0.0286047198 0
0.0983333364 -0.0286047198 0
0.0949999988 -0.0286047198 0
0.0916666687 -0.0286047198 0
0.088333331 -0.0286047198 0
0.0850000009 -0.0286047198 0
0.0816666633 -0.0286047198 0
0.0783333331 -0.0286047198 0
0.075000003 -0.0286047198 0
0.0716666654 -0.0286047198 0
0.0683333352 -0.0286047198 0
0.0649999976 -0.0286047198 0
0.0616666675 -0.0286047198 0
0.0583333336 -0.0286047198 0
0.0549999997 -0.0286047198 0
0.0516666658 -0.0286047198 0
0.0483333319 -0.0286047198 0
0.0450000018 -0.0286047198 0
0.0416666679 -0.0286047198 0
0.038333334 -0.0286047198 0
0.13666667 -0.0314914696 0
0.13333334 -0.0314914696 0
0.129999995 -0.0314914696 0
0.126666665 -0.0314914696 0
0.123333335 -0.0314914696 0
0.119999997 -0.0314914696 0
0.116666667 -0.0314914696 0
0.113333337 -0.0314914696 0
0.109999999 -0.0314914696 0
0.106666669 -0.0314914696 0
0.103333332 -0.0314914696 0
0.100000001 -0.0314914696 0
0.0966666639 -0.0314914696 0
0.0933333337 -0.0314914696 0
0.0900000036 -0.0314914696 0
0.086666666 -0.0314914696 0
0.0833333358 -0.0314914696 0
0.0799999982 -0.0314914696 0
0.0766666681 -0.0314914696 0
0.0733333305 -0.0314914696 0
0.0700000003 -0.0314914696 0
0.0666666701 -0.0314914696 0
0.0633333325 -0.0314914696 0
0.0599999987 -0.0314914696 0
0.0566666685 -0.0314914696 0
0.0533333346 -0.0314914696 0
0.0500000007 -0.0314914696 0
0.0466666669 -0.0314914696 0
0.043333333 -0.0314914696 0
0.0399999991 -0.0314914696 0
0.0366666652 -0.0314914696 0
0.135000005 -0.0343782231 0
0.13166666 -0.0343782231 0
0.12833333 -0.0343782231 0
0.125 -0.0343782231 0
0.12166667 -0.0343782231 0
0.118333332 -0.0343782231 0
0.115000002 -0.0343782231 0
0.111666664 -0.0343782231 0
0.108333334 -0.0343782231 0
0.104999997 -0.0343782231 0
0.101666667 -0.0343782231 0
0.0983333364 -0.0343782231 0
0.0949999988 -0.0343782231 0
0.0916666687 -0.0343782231 0
0.088333331 -0.0343782231 0
0.0850000009 -0.0343782231 0
0.0816666633 -0.0343782231 0
0.0783333331 -0.0343782231 0
0.075000003 -0.0343782231 0
0.0716666654 -0.0343782231 0
0.0683333352 -0.0343782231 0
0.0649999976 -0.0343782231 0
0.0616666675 -0.0343782231 0
0.0583333336 -0.0343782231 0
0.0549999997 -0.0343782231 0
0.0516666658 -0.0343782231 0
0.0483333319 -0.0343782231 0
0.0450000018 -0.0343782231 0
0.0416666679 -0.0343782231 0
0.038333334 -0.0343782231 0
0.0350000001 -0.0343782231 0
0.13333334 -0.0372649729 0
0.129999995 -0.0372649729 0
0.126666665 -0.0372649729 0
0.123333335 -0.0372649729 0
0.119999997 -0.0372649729 0
0.116666667 -0.0372649729 0
0.113333337 -0.0372649729 0
0.109999999 -0.0372649729 0
0.106666669 -0.0372649729 0
0.103333332 -0.0372649729 0
0.100000001 -0.0372649729 0
0.0966666639 -0.0372649729 0
0.0933333337 -0.0372649729 0
0.0900000036 -0.0372649729 0
0.086666666 -0.0372649729 0
0.0833333358 -0.0372649729 0
0.0799999982 -0.0372649729 0
0.0766666681 -0.0372649729 0
0.0733333305 -0.0372649729 0
0.0700000003 -0.0372649729 0
0.0666666701 -0.0372649729 0
0.0633333325 -0.0372649729 0
0.0599999987 -0.0372649729 0
0.0566666685 -0.0372649729 0
0.0533333346 -0.0372649729 0
0.0500000007 -0.0372649729 0
0.0466666669 -0.0372649729 0
0.043333333 -0.0372649729 0
0.0399999991 -0.0372649729 0
0.0366666652 -0.0372649729 0
0.0333333351 -0.0372649729 0
0.13166666 -0.0401517227 0
0.12833333 -0.0401517227 0
0.125 -0.0401517227 0
0.12166667 -0.0401517227 0
0.118333332 -0.0401517227 0
0.115000002 -0.0401517227 0
0.111666664 -0.0401517227 0
[...]
POINT_DATA 961
SCALARS Temp float 1
LOOKUP_TABLE default
236.28722756483083
191.02038060814766
166.4236130519635
155.91480105535823
152.02314742579244
150.7139099692005
150.30093862440376
150.17646705192965
150.1402044516326
150.1299145296231
150.12705371035128
150.12627555973577
150.1260657600632
150.12600974059748
150.12599679229166
150.12599039068232
150.12598955562072
150.125987642765
150.1259898858179
150.12599032246808
150.1259928607105
150.12600897816992
150.1260907090756
150.1265761461587
150.12929844381947
150.14410680293477
150.22108413990028
150.59626005403533
152.24702932603452
158.33325315297202
176.11243404209023
191.02039828852725
151.96452036586894
133.6161754421964
126.24521306175312
123.61979068768306
122.75709917670507
122.48904211899202
122.40908794882775
122.3859727175227
122.37945268782332
122.37765056962327
122.37715963617093
122.37702797702396
122.37699331005153
122.37698224762171
122.37698147656533
122.37698126606826
122.37698174119892
122.3769811980997
122.37698222646347
122.37698880687773
122.3770243011265
122.3772420140818
122.37845830257494
122.38508857647562
122.41976639678774
122.59083319195945
123.36364573762982
126.39609688695158
136.03299262432273
158.33326667900812
166.4235946738253
133.61617435087445
118.15862843105047
111.96324736730018
109.74705147824663
109.01414426247956
108.78498788276592
108.7162660576478
108.69630766445151
108.69065669712627
108.68909097561072
108.68866382846491
108.68854897335407
108.68851856964291
108.68851089481399
108.68850824775015
108.68850704176891
108.6885079622496
108.6885083380024
108.6885109238783
108.68852614967093
108.68861420828483
108.68910381482128
108.69175923692345
108.70558325663121
108.773622271935
109.08294091371036
110.33314003678228
114.61415311627718
126.39608773878447
152.2470304542038
155.91478831463553
126.24521572663512
111.96325407027855
106.15565611041706
104.05825119871294
103.3598792549754
103.14042573641625
103.07436733379357
103.05512917330297
103.04967139056549
103.04815503489453
103.04774111755366
103.04762978478392
103.04759986359349
103.04759249312401
103.04759045789574
103.04759024765136
103.04759006254349
103.04759100301534
103.04759676015306
103.04762939375858
103.04781240041639
103.04879139833275
103.05383243310499
103.07842904634984
103.18999204893073
103.64745502216743
105.2910369911276
110.3331448361863
123.36365462206669
150.59625469387544
152.02314636140247
123.61979532413521
109.74705675119729
104.0582602075957
101.99356871392668
101.30398538586175
101.08685611967437
101.0214065726209
101.002327026099
100.99691017902587
100.99540462969104
100.9949934785084
100.99488285294962
100.9948535599383
100.99484571588481
100.99484361955766
100.9948433180677
100.99484353480584
100.99484556597235
100.99485723641561
100.99492128968409
100.99525942600002
100.99697793819101
101.00526910246036
101.04264972506628
101.19698847695827
101.76893832115675
103.64745333875351
109.08293995053934
122.59083077290927
150.22109038633897
150.7139064301344
122.75710969100017
109.01415326358565
103.3598722043076
101.30398330693686
100.61659920124993
100.40001847740406
100.33470607333787
100.31566107364317
100.31025264152224
100.30874927734922
100.30833869589935
100.30822817075013
100.30819885720398
100.30819113649694
100.30818919295822
100.30818876581365
100.30818933916524
100.3081932481978
100.30821448829317
100.30832552845746
100.30888157129205
100.3115313538954
100.32338983890484
100.3724987435837
100.55830322915698
101.19698834601894
103.18999254218332
108.77362596759701
122.41975338981308
150.1440982588643
150.30093437119493
122.48904948640734
108.78500270608717
103.14041554202063
101.08685392201374
100.40001824101579
100.18356666849957
100.11828534204562
100.09924771052712
100.09384110424375
100.0923381923612
100.0919277210502
100.09181727226047
100.09178790348349
100.09178018449413
100.0917782323682
100.09177794524301
100.09177908964837
100.09178585204553
100.09182079086303
100.09199331284525
100.09280549803677
100.09641249794134
100.11136408949025
100.16876140870258
100.37249859495718
101.04264907201804
103.07842742213512
108.7055806627353
122.38508588251923
150.12930777525622
150.17647193119768
122.4090957579672
108.71624142285133
103.07435890036221
101.02140544831741
100.33470647944841
100.1182853023132
100.05301096702912
100.03397487849129
100.0285686709047
100.02706584861043
100.02665539666742
100.02654494435359
100.02651559154037
100.02650789234244
100.02650595311901
100.02650583382865
100.02650779728074
100.02651838137648
100.02657012021079
100.02681086356148
100.02787207763085
100.03227047009167
100.04933545298957
100.11136405105309
100.3233898099323
101.00526911582624
103.0538324410218
108.6917538635156
122.37844398605394
150.12656646613115
150.1401962105662
122.38598682900626
108.69628039234968
103.05512328484717
101.00232703945198
100.31566080924513
100.09924774274728
100.03397495272903
100.01493919104189
100.00953306942554
100.00803026377369
100.00761982079682
100.00750936400627
100.00748001315614
100.00747232008587
100.00747043161444
100.00747054043151
100.00747354453168
100.00748859811397
100.00755801773731
100.00786193348999
100.00912078867984
100.0140445145631
100.03227049372062
100.0964124726708
100.31153123520781
100.99697783671682
103.048790044205
108.68910497684746
122.3772453859808
150.1261057939146
150.12992099501187
122.37939776218283
108.69064525507997
103.0496708552842
100.99691225187291
100.31025272661066
100.09384127462776
100.02856868392401
100.00953306743367
100.0041269517765
100.00262415450861
100.0022137111906
100.00210325615913
100.00207390913785
100.00206622751988
100.00206440101603
100.00206478612498
100.00206894835479
100.00208848606262
100.00217360497517
100.00252591539254
100.00391271184203
100.00912078180097
100.02787206540874
100.09280550298
100.30888157163737
100.99525949427485
103.04780870371319
108.68860744887282
122.37701268061305
150.1259987066612
150.1270992697695
122.37761339965459
108.68908894362251
103.04815763855517
100.9954045239384
100.30874952525923
100.09233842207856
100.0270658458472
100.00803027103638
100.00262415395102
100.00112135892694
100.00071091519655
100.00060046142657
100.00057111772192
100.00056345286603
100.00056169822481
100.00056237788218
100.0005676568324
100.00059102817194
100.00068780341418
100.00107075412605
100.00252591731504
100.00786193605389
100.0268108527725
100.09199327784266
100.30832544235997
100.9949206890458
103.04762908120671
108.68852813261802
122.37699624844818
150.1259829560428
150.12623811462845
122.37714726405433
108.68866821958184
103.04774629029967
100.99499307201607
100.30833894669287
100.0919276603965
100.02665539986866
100.00761980613817
100.00221371123482
100.00071091600945
100.00030047221715
100.00019001981379
100.0001606804807
100.00015303425155
100.00015135344668
100.00015230672493
100.00015850841523
100.00018464898899
100.00028866100938
100.00068780449968
100.00217360658323
100.00755801398431
100.02657013750687
100.09182084547056
100.30821479673328
100.99485677726068
103.04759557820614
108.6885116014041
122.37698228209058
150.12600249145004
150.1260592765703
122.37703653795286
108.68856015834591
103.04762883431795
100.99488317371538
100.30822880317177
100.09181721057284
100.02654498274764
100.00750935419121
100.00210325797475
100.00060046091716
100.00019001959666
100.00007956923561
100.00005023559319
100.00004260853397
100.00004099464864
100.0000421678511
100.00004902003828
100.00007684998383
100.000184648631
100.00059102795404
100.00208848821639
100.0074885870224
100.02651837483609
100.09178583088574
100.30819310842553
100.99484539372747
103.0475906547107
108.68851090916496
122.37696333388247
150.12598973674883
150.126002311809
122.37699853664321
108.68853074054897
103.04759730720943
100.99485361759311
100.3081985227988
100.09178788444315
100.02651556485279
100.00748000812786
100.00207391237508
100.00057111680783
100.00016068037394
100.00005023556885
100.00002091084771
100.00001330326573
100.00001174369595
100.00001306977833
100.00002031335818
100.0000490199992
100.00015850850865
100.0005676566103
100.00206894943531
100.00747354336805
100.0265078185458
100.09177917410001
100.30818919896127
100.9948431098061
103.04758893429286
108.68850688090144
122.37698405197911
150.1259882688925
150.12599862434695
122.37699614239195
108.68850484763799
103.04759156060268
100.99484714806387
100.30819094560398
100.09178032427415
100.02650787524004
100.00747231868583
100.00206622697239
100.00056345265533
100.00015303438191
100.00004260850572
100.00001330327672
100.00000571967414
100.00000420286055
100.00000562297238
100.00001306976513
100.00004216779695
100.00015230656537
100.00056237797352
100.00206478531753
100.00747053137992
100.0265058284834
100.09177789934843
100.30818870974223
100.99484317054304
103.0475899468176
108.68850131241659
122.37697886228023
150.12598503319055
150.1259860188044
122.37699364423324
108.68849959454649
103.04759012742659
100.99484266170569
100.30818910726198
100.09177813582795
100.02650595152548
100.0074704364317
100.00206439950514
100.00056169822862
100.00015135314848
100.00004099464532
100.00001174367671
100.00000420286008
100.00000272671676
100.00000420286332
100.00001174368029
100.00004099471495
100.00015135328046
100.00056169792205
100.00206440257185
100.00747043119631
100.02650597812189
100.09177818441599
100.30818902984262
100.99484345958994
103.0475892953572
108.68851134020512
122.37697584024396
150.1259948660008
150.12599684459101
122.37695953009131
108.68850832853921
103.04759427559787
100.99484281502676
100.30818917641481
100.09177788892428
100.02650584781063
100.00747053089074
100.00206478724496
100.00056237887628
100.00015230651523
100.00004216791723
100.00001306976674
100.00000562297531
100.00000420286621
100.00000571968008
100.00001330325175
100.0000426085277
100.00015303414398
100.00056345210571
100.0020662268282
100.00747231183443
100.02650787508318
100.09178018180934
100.30819113246218
100.99484588027616
103.04758911146614
108.6885096629863
122.37697301258744
150.12598911255384
150.1260133272756
122.37696714441795
108.68851228038127
103.04758723528671
100.99484333911629
100.30818898037884
100.09177906665703
100.02650783340778
100.007473532391
100.00206895063248
100.0005676561615
100.00015850826122
100.00004901998786
100.0000203133471
100.00001306978457
100.00001174370061
100.0000133032675
100.00002091086641
100.00005023560344
100.0001606802739
100.00057111756426
100.00207391051134
100.00748001494836
100.0265155792612
100.09178787216491
100.30819879510808
100.99485309828721
103.04760018589964
108.68851501320012
122.37698711766143
150.1260095593142
150.12596728628756
122.37697727925439
108.68851771599546
103.04758728055634
100.9948458547274
100.30819278372655
100.09178581958835
100.02651835331439
100.00748858871307
100.00208849001518
100.00059102735712
100.00018464895321
100.00007684995524
100.00004902002516
100.0000421678466
100.00004099464614
100.00004260852992
100.00005023561448
100.00007956919664
100.00019001955258
100.000600461255
100.00210325756878
100.00750936026114
100.0265449622401
100.0918173335193
100.30822850651568
100.994882390557
103.04763012523527
108.68854852497999
122.37702644301793
150.12607169510255
150.12598939872828
122.37699272672468
108.68850477487175
103.04759535134983
100.99485589769482
100.30821444709382
100.09182090458403
100.02657010344055
100.00755801916006
100.00217360520612
100.00068780366863
100.00028866097065
100.00018464894073
100.00015850843548
100.00015230677687
100.00015135345208
100.00015303425215
100.00016068049614
100.00019001976663
100.00030047240772
100.00071091546566
100.00221371317598
100.0076198100019
100.02665539159992
100.09192770199094
100.3083385628706
100.99499337628828
103.04773817097991
108.68865963849477
122.37715055839668
150.12627330866508
150.12598888390178
122.37700156685577
108.68851644726053
103.04762980433779
100.99491972973607
100.30832545002319
100.09199321684096
100.02681086142846
100.00786194290811
100.0025259153272
100.00107075532955
100.00068780346874
100.00059102813569
100.00056765676793
100.00056237783795
100.00056169824067
100.00056345298404
100.00057111766556
100.00060046144326
100.00071091529963
100.0011213587672
100.00262415551789
100.00803026309545
100.02706586990908
100.09233827165352
100.30874909617646
100.99540459286382
103.0481533238066
108.6890899029461
122.37764907922272
150.12705079562267
150.12599599853806
122.37698918261265
108.68860635130036
103.04780649979956
100.99525860959062
100.30888180216446
100.09280539679105
100.02787208446102
100.00912077768791
100.00391270917119
100.002525915142
100.0021736046671
100.0020884861133
100.00206894905972
100.00206478620683
100.00206440096716
100.00206622760156
100.00207390891865
100.0021032562132
100.00221371107496
100.00262415522067
100.00412695220922
100.00953306195176
100.028568683048
100.09384112161203
100.31025282492132
100.99690982840626
103.04967065808644
108.69066029916458
122.37945934054244
150.12992996936194
150.12612592512795
122.37723469046699
108.68911410326011
103.04879004662321
100.9969787059486
100.31153128364612
100.09641258402642
100.03227054994781
100.0140445264272
100.0091208076127
100.00786194932041
100.00755803133563
100.00748861095025
100.00747355757078
100.00747055423885
100.00747044661331
100.00747233304179
100.0074800271686
100.00750937788312
100.00761983389096
100.00803027794534
100.00953307854215
100.01493920323477
100.03397489571766
100.09924757585208
100.31566082099971
101.00232599221668
103.05512601246296
108.69630314870679
122.38595322472213
150.14019050370604
150.1265626011989
122.3784616992394
108.69175509886209
103.05383220985631
101.00527052831347
100.32338972907012
100.11136422198368
100.04933550765526
100.03227051459096
100.02787212432362
100.02681090920896
100.02657016878378
100.02651843860222
100.02650784693166
100.02650588173871
100.02650600227979
100.0265079384539
100.0265156403042
100.02654499344708
100.02665544827121
100.02706589579442
100.02856871695616
100.03397492292109
100.05301095573431
100.11828538621423
100.33470585311264
101.02140591606145
103.07436550385916
108.71626451975689
122.40908535140541
150.17646532746036
150.12929434634205
122.38510143996018
108.70557797897972
103.07842879033372
101.0426488656088
100.37249888092654
100.16876159868741
100.11136415629396
100.09641259402594
100.09280560587808
100.0919933958422
100.09182086589783
100.09178592795408
100.09177917412428
100.09177804262484
100.09177830713725
100.09178027262908
100.09178798987911
100.09181735154725
100.0919278116307
100.0923382761504
100.09384119012998
100.09924777229526
100.11828541762542
100.18356688368527
100.4000183762746
101.08685589914361
103.14042572601224
108.78498649110486
122.48903939958808
150.30093610124848
150.14410287040556
122.41974182925381
108.7736197654418
103.18999450772779
101.19698747139135
100.55830345007611
100.37249876612103
100.32338983230206
100.31153133669913
100.3088815470595
100.30832553882581
100.30821459034735
100.30819326887095
100.3081893404748
100.30818877688144
100.30818918049427
100.3081911508348
100.3081988740875
100.30822821282227
100.30833869459107
100.30874929923651
100.3102526757994
100.31566105042201
100.33470613476078
100.40001840779453
100.61659968624717
101.30398629024828
103.35988129292642
109.0141472637089
122.75709864856469
150.71390647350628
150.2210901684
122.5908121238654
109.08293834471195
103.64745047320397
101.76893774105012
101.19698791441368
101.04264883547145
101.00526832679078
100.99697737448571
100.9952586430172
100.9949204467086
100.99485636578225
100.99484477904151
100.99484286631439
100.9948424493644
100.994842891252
100.99484495973863
100.99485273762828
100.99488212037231
100.99499270384646
100.99540385765378
100.99690931451646
101.00232637321926
101.02140588423495
101.08685529357494
101.30398547213446
101.99357162770966
104.05825218275382
109.74704835343921
123.61978905709256
152.023156737268
150.59625997362235
123.36365809299973
110.33315904854693
105.29104087677919
103.64746028873432
103.18999679992503
103.07843344265706
103.05383663801649
103.04879548797224
103.04781686382987
103.04763453411879
103.047601232226
103.04759532717534
103.04759442720905
103.04759454180721
103.04759491277501
103.04759695042608
103.04760452219581
103.04763407580045
103.04774562011505
103.04815960568476
103.04967561614352
103.055133537987
103.07437166315165
103.1404304072999
103.35988507803391
104.05825706993282
106.1556521191246
111.96323999877347
126.2451925233488
155.914787026381
152.2470359522598
126.39610913176759
114.6141616471305
110.33315034445778
109.082950799644
108.7736307598181
108.70559217339621
108.69176955555858
108.68911304298332
108.68862310355878
108.68853440167301
108.68851985755943
108.68851801087585
108.68851656016356
108.6885165585392
108.68851744988639
108.68851973892562
108.68852777785474
108.68855810622426
108.68867292047227
108.68909950728266
108.69066655905034
108.69631690072116
108.71627446407848
108.78499765944527
109.0141534496419
109.74705510014945
111.96324786546893
118.15862127306495
133.61616369241094
166.42360812355548
158.33326589408625
136.0330121315038
126.39610097169445
123.36365364020064
122.59084101042878
122.419773078168
122.38509448455795
122.37846336696691
122.37724964770183
122.3770339541667
122.37699569681709
122.37698857801536
122.37698746431907
122.37698859584837
122.37698812122521
122.37698846483214
122.37699001315272
122.37699940813921
122.3770352247529
122.37716690753307
122.37765691639294
122.37945897028587
122.38597969872238
122.40909633787884
122.48905136481653
122.75710547688388
123.61979130257454
126.2452111339293
133.61616638910428
151.96451567674046
191.02036537333598
176.11244730550504
158.3332491967405
152.2470307846831
150.59626250198957
150.221082536548
150.14410699674548
150.12930059249297
150.12657926939963
150.12609238219866
150.12600556499922
150.12599290307043
150.1259916197607
150.1259905658555
150.12598941270545
150.12599047140486
150.1259912479836
150.1259962190633
150.12601138010172
150.12606622378976
150.12627497243096
150.12705582604517
150.12991590445466
150.14020579024336
150.17646833891408
150.3009341275414
150.7139061280352
152.0231477040589
155.9147923855088
166.42359801204398
191.02035138476523
236.28693011593148
