# vtk DataFile Version 2.0
Unstructured Grid Example
ASCII
DATASET UNSTRUCTURED_GRID

POINTS 961 float
0.150000006 -0.00839745998 0
0.146666661 -0.00839745998 0
0.143333331 -0.00839745998 0
0.140000001 -0.00839745998 0
0.13666667 -0.00839745998 0
0.13333334 -0.00839745998 0
0.129999995 -0.00839745998 0
0.126666665 -0.00839745998 0
0.123333335 -0.00839745998 0
0.119999997 -0.00839745998 0
0.116666667 -0.00839745998 0
0.113333337 -0.00839745998 0
0.109999999 -0.00839745998 0
0.106666669 -0.00839745998 0
0.103333332 -0.00839745998 0
0.100000001 -0.00839745998 0
0.0966666639 -0.00839745998 0
0.0933333337 -0.00839745998 0
0.0900000036 -0.00839745998 0
0.086666666 -0.00839745998 0
0.0833333358 -0.00839745998 0
0.0799999982 -0.00839745998 0
0.0766666681 -0.00839745998 0
0.0733333305 -0.00839745998 0
0.0700000003 -0.00839745998 0
0.0666666701 -0.00839745998 0
0.0633333325 -0.00839745998 0
0.0599999987 -0.00839745998 0
0.0566666685 -0.00839745998 0
0.0533333346 -0.00839745998 0
0.0500000007 -0.00839745998 0
0.148333326 -0.0112842107 0
0.144999996 -0.0112842107 0
0.141666666 -0.0112842107 0
0.138333336 -0.0112842107 0
0.135000005 -0.0112842107 0
0.13166666 -0.0112842107 0
0.12833333 -0.0112842107 0
0.125 -0.0112842107 0
0.12166667 -0.0112842107 0
0.118333332 -0.0112842107 0
0.115000002 -0.0112842107 0
0.111666664 -0.0112842107 0
0.108333334 -0.0112842107 0
0.104999997 -0.0112842107 0
0.101666667 -0.0112842107 0
0.0983333364 -0.0112842107 0
0.0949999988 -0.0112842107 0
0.0916666687 -0.0112842107 0
0.088333331 -0.0112842107 0
0.0850000009 -0.0112842107 0
0.0816666633 -0.0112842107 0
0.0783333331 -0.0112842107 0
0.075000003 -0.0112842107 0
0.0716666654 -0.0112842107 0
0.0683333352 -0.0112842107 0
0.0649999976 -0.0112842107 0
0.0616666675 -0.0112842107 0
0.0583333336 -0.0112842107 0
0.0549999997 -0.0112842107 0
0.0516666658 -0.0112842107 0
0.0483333319 -0.0112842107 0
0.146666661 -0.0141709624 0
0.143333331 -0.0141709624 0
0.140000001 -0.0141709624 0
0.13666667 -0.0141709624 0
0.13333334 -0.0141709624 0
0.129999995 -0.0141709624 0
0.126666665 -0.0141709624 0
0.123333335 -0.0141709624 0
0.119999997 -0.0141709624 0
0.116666667 -0.0141709624 0
0.113333337 -0.0141709624 0
0.109999999 -0.0141709624 0
0.106666669 -0.0141709624 0
0.103333332 -0.0141709624 0
0.100000001 -0.0141709624 0
0.0966666639 -0.0141709624 0
0.0933333337 -0.0141709624 0
0.0900000036 -0.0141709624 0
0.086666666 -0.0141709624 0
0.0833333358 -0.0141709624 0
0.0799999982 -0.0141709624 0
0.0766666681 -0.0141709624 0
0.0733333305 -0.0141709624 0
0.0700000003 -0.0141709624 0
0.0666666701 -0.0141709624 0
0.0633333325 -0.0141709624 0
0.0599999987 -0.0141709624 0
0.0566666685 -0.0141709624 0
0.0533333346 -0.0141709624 0
0.0500000007 -0.0141709624 0
0.0466666669 -0.0141709624 0
0.144999996 -0.0170577131 0
0.141666666 -0.0170577131 0
0.138333336 -0.0170577131 0
0.135000005 -0.0170577131 0
0.13166666 -0.0170577131 0
0.12833333 -0.0170577131 0
0.125 -0.0170577131 0
0.12166667 -0.0170577131 0
0.118333332 -0.0170577131 0
0.115000002 -0.0170577131 0
0.111666664 -0.0170577131 0
0.108333334 -0.0170577131 0
0.104999997 -0.0170577131 0
0.101666667 -0.0170577131 0
0.0983333364 -0.0170577131 0
0.0949999988 -0.0170577131 0
0.0916666687 -0.0170577131 0
0.088333331 -0.0170577131 0
0.0850000009 -0.0170577131 0
0.0816666633 -0.0170577131 0
0.0783333331 -0.0170577131 0
0.075000003 -0.0170577131 0
0.0716666654 -0.0170577131 0
0.0683333352 -0.0170577131 0
0.0649999976 -0.0170577131 0
0.0616666675 -0.0170577131 0
0.0583333336 -0.0170577131 0
0.0549999997 -0.0170577131 0
0.0516666658 -0.0170577131 0
0.0483333319 -0.0170577131 0
0.0450000018 -0.0170577131 0
0.143333331 -0.0199444648 0
0.140000001 -0.0199444648 0
0.13666667 -0.0199444648 0
0.13333334 -0.0199444648 0
0.129999995 -0.0199444648 0
0.126666665 -0.0199444648 0
0.123333335 -0.0199444648 0
0.119999997 -0.0199444648 0
0.116666667 -0.0199444648 0
0.113333337 -0.0199444648 0
0.109999999 -0.0199444648 0
0.106666669 -0.0199444648 0
0.103333332 -0.0199444648 0
0.100000001 -0.0199444648 0
0.0966666639 -0.0199444648 0
0.0933333337 -0.0199444648 0
0.0900000036 -0.0199444648 0
0.086666666 -0.0199444648 0
0.0833333358 -0.0199444648 0
0.0799999982 -0.0199444648 0
0.0766666681 -0.0199444648 0
0.0733333305 -0.0199444648 0
0.0700000003 -0.0199444648 0
0.0666666701 -0.0199444648 0
0.0633333325 -0.0199444648 0
0.0599999987 -0.0199444648 0
0.0566666685 -0.0199444648 0
0.0533333346 -0.0199444648 0
0.0500000007 -0.0199444648 0
0.0466666669 -0.0199444648 0
0.043333333 -0.0199444648 0
0.141666666 -0.0228312165 0
0.138333336 -0.0228312165 0
0.135000005 -0.0228312165 0
0.13166666 -0.0228312165 0
0.12833333 -0.0228312165 0
0.125 -0.0228312165 0
0.12166667 -0.0228312165 0
0.118333332 -0.0228312165 0
0.115000002 -0.0228312165 0
0.111666664 -0.0228312165 0
0.108333334 -0.0228312165 0
0.104999997 -0.0228312165 0
0.101666667 -0.0228312165 0
0.0983333364 -0.0228312165 0
0.0949999988 -0.0228312165 0
0.0916666687 -0.0228312165 0
0.088333331 -0.0228312165 0
0.0850000009 -0.0228312165 0
0.0816666633 -0.0228312165 0
0.0783333331 -0.0228312165 0
0.075000003 -0.0228312165 0
0.0716666654 -0.0228312165 0
0.0683333352 -0.0228312165 0
0.0649999976 -0.0228312165 0
0.0616666675 -0.0228312165 0
0.0583333336 -0.0228312165 0
0.0549999997 -0.0228312165 0
0.0516666658 -0.0228312165 0
0.0483333319 -0.0228312165 0
0.0450000018 -0.0228312165 0
0.0416666679 -0.0228312165 0
0.140000001 -0.0257179681 0
0.13666667 -0.0257179681 0
0.13333334 -0.0257179681 0
0.129999995 -0.0257179681 0
0.126666665 -0.0257179681 0
0.123333335 -0.0257179681 0
0.119999997 -0.0257179681 0
0.116666667 -0.0257179681 0
0.113333337 -0.0257179681 0
0.109999999 -0.0257179681 0
0.106666669 -0.0257179681 0
0.103333332 -0.0257179681 0
0.100000001 -0.0257179681 0
0.0966666639 -0.0257179681 0
0.0933333337 -0.0257179681 0
0.0900000036 -0.0257179681 0
0.086666666 -0.0257179681 0
0.0833333358 -0.0257179681 0
0.0799999982 -0.0257179681 0
0.0766666681 -0.0257179681 0
0.0733333305 -0.0257179681 0
0.0700000003 -0.0257179681 0
0.0666666701 -0.0257179681 0
0.0633333325 -0.0257179681 0
0.0599999987 -0.0257179681 0
0.0566666685 -0.0257179681 0
0.0533333346 -0.0257179681 0
0.0500000007 -0.0257179681 0
0.0466666669 -0.0257179681 0
0.043333333 -0.0257179681 0
0.0399999991 -0.0257179681 0
0.138333336 -0.0286047198 0
0.135000005 -0.0286047198 0
0.13166666 -0.0286047198 0
0.12833333 -0.0286047198 0
0.125 -0.0286047198 0
0.12166667 -0.0286047198 0
0.118333332 -0.0286047198 0
0.115000002 -0.0286047198 0
0.111666664 -0.0286047198 0
0.108333334 -0.0286047198 0
0.104999997 -0.0286047198 0
0.101666667 -0.0286047198 0
0.0983333364 -0.0286047198 0
0.0949999988 -0.0286047198 0
0.0916666687 -0.0286047198 0
0.088333331 -0.0286047198 0
0.0850000009 -0.0286047198 0
0.0816666633 -0.0286047198 0
0.0783333331 -0.0286047198 0
0.075000003 -0.0286047198 0
0.0716666654 -0.0286047198 0
0.0683333352 -0.0286047198 0
0.0649999976 -0.0286047198 0
0.0616666675 -0.0286047198 0
0.0583333336 -0.0286047198 0
0.0549999997 -0.0286047198 0
0.0516666658 -0.0286047198 0
0.0483333319 -0.0286047198 0
0.0450000018 -0.0286047198 0
0.0416666679 -0.0286047198 0
0.038333334 -0.0286047198 0
0.13666667 -0.0314914696 0
0.13333334 -0.0314914696 0
0.129999995 -0.0314914696 0
0.126666665 -0.0314914696 0
0.123333335 -0.0314914696 0
0.119999997 -0.0314914696 0
0.116666667 -0.0314914696 0
0.113333337 -0.0314914696 0
0.109999999 -0.0314914696 0
0.106666669 -0.0314914696 0
0.103333332 -0.0314914696 0
0.100000001 -0.0314914696 0
0.0966666639 -0.0314914696 0
0.0933333337 -0.0314914696 0
0.0900000036 -0.0314914696 0
0.086666666 -0.0314914696 0
0.0833333358 -0.0314914696 0
0.0799999982 -0.0314914696 0
0.0766666681 -0.0314914696 0
0.0733333305 -0.0314914696 0
0.0700000003 -0.0314914696 0
0.0666666701 -0.0314914696 0
0.0633333325 -0.0314914696 0
0.0599999987 -0.0314914696 0
0.0566666685 -0.0314914696 0
0.0533333346 -0.0314914696 0
0.0500000007 -0.0314914696 0
0.0466666669 -0.0314914696 0
0.043333333 -0.0314914696 0
0.0399999991 -0.0314914696 0
0.0366666652 -0.0314914696 0
0.135000005 -0.0343782231 0
0.13166666 -0.0343782231 0
0.12833333 -0.0343782231 0
0.125 -0.0343782231 0
0.12166667 -0.0343782231 0
0.118333332 -0.0343782231 0
0.115000002 -0.0343782231 0
0.111666664 -0.0343782231 0
0.108333334 -0.0343782231 0
0.104999997 -0.0343782231 0
0.101666667 -0.0343782231 0
0.0983333364 -0.0343782231 0
0.0949999988 -0.0343782231 0
0.0916666687 -0.0343782231 0
0.088333331 -0.0343782231 0
0.0850000009 -0.0343782231 0
0.0816666633 -0.0343782231 0
0.0783333331 -0.0343782231 0
0.075000003 -0.0343782231 0
0.0716666654 -0.0343782231 0
0.0683333352 -0.0343782231 0
0.0649999976 -0.0343782231 0
0.0616666675 -0.0343782231 0
0.0583333336 -0.0343782231 0
0.0549999997 -0.0343782231 0
0.0516666658 -0.0343782231 0
0.0483333319 -0.0343782231 0
0.0450000018 -0.0343782231 0
0.0416666679 -0.0343782231 0
0.038333334 -0.0343782231 0
0.0350000001 -0.0343782231 0
0.13333334 -0.0372649729 0
0.129999995 -0.0372649729 0
0.126666665 -0.0372649729 0
0.123333335 -0.0372649729 0
0.119999997 -0.0372649729 0
0.116666667 -0.0372649729 0
0.113333337 -0.0372649729 0
0.109999999 -0.0372649729 0
0.106666669 -0.0372649729 0
0.103333332 -0.0372649729 0
0.100000001 -0.0372649729 0
0.0966666639 -0.0372649729 0
0.0933333337 -0.0372649729 0
0.0900000036 -0.0372649729 0
0.086666666 -0.0372649729 0
0.0833333358 -0.0372649729 0
0.0799999982 -0.0372649729 0
0.0766666681 -0.0372649729 0
0.0733333305 -0.0372649729 0
0.0700000003 -0.0372649729 0
0.0666666701 -0.0372649729 0
0.0633333325 -0.0372649729 0
0.0599999987 -0.0372649729 0
0.0566666685 -0.0372649729 0
0.0533333346 -0.0372649729 0
0.0500000007 -0.0372649729 0
0.0466666669 -0.0372649729 0
0.043333333 -0.0372649729 0
0.0399999991 -0.0372649729 0
0.0366666652 -0.0372649729 0
0.0333333351 -0.0372649729 0
0.13166666 -0.0401517227 0
0.12833333 -0.0401517227 0
0.125 -0.0401517227 0
0.12166667 -0.0401517227 0
0.118333332 -0.0401517227 0
0.115000002 -0.0401517227 0
0.111666664 -0.0401517227 0
[...]
POINT_DATA 961
SCALARS Temp float 1
LOOKUP_TABLE default
259.4652944161365
211.91449894595195
182.9431178655092
168.5025204706663
162.2184024284949
159.75632988019902
158.86509730322692
158.56121878283645
158.4622897437826
158.43124256779075
158.4217834904557
158.4189750723617
158.41815740023983
158.41792339918203
158.41785897800835
158.41783850976896
158.41783370059164
158.41783102668145
158.41783298007687
158.41783541833576
158.41784901954966
158.4179234742088
158.418305702383
158.42026587337608
158.42986377030547
158.47450791808612
158.66826485900648
159.43288459289283
162.07501394330822
169.7187174067943
188.0468244293027
211.91451685155147
169.98713220465942
147.29436526563404
136.5995406220955
132.13500296886863
130.43707392519553
129.8352920849792
129.63323343524215
129.56821019815322
129.54798856539222
129.54187440946103
129.54006794099456
129.53954495249184
129.53939625522113
129.53935281337633
129.53934271735218
129.53933999543148
129.53933976312953
129.53934014379902
129.53934630035567
129.5393801657222
129.5395568313138
129.5404744589161
129.545005270754
129.56636177219767
129.66094914171416
130.04625933605382
131.44674890705392
135.81838825583705
147.1067598319191
169.71873266916327
182.94309386199734
147.29436096299204
128.1381396501016
119.17706363516649
115.43738860077961
114.01018645355094
113.50183215173085
113.33026003623647
113.27478252761476
113.25745658107449
113.25220030717429
113.25064280265052
113.25019061365047
113.25006179725423
113.25002580457583
113.25001520932902
113.25001178142135
113.25001256637472
113.25001503169177
113.25002933329321
113.25010534054286
113.25049602766181
113.25242953376336
113.26158650734475
113.30251917198596
113.4721865010207
114.10899505724642
116.21034069818953
122.1193830315524
135.81837876501797
162.07501664704898
168.50250128844533
136.59953962085274
119.17707083867043
110.91783064509303
107.43456810335552
106.09393739767155
105.61320274605887
105.45009398028061
105.39713503496503
105.38054259544016
105.37549394879679
105.37399512559371
105.37355932482234
105.37343439232322
105.37339990519182
105.37339023871756
105.37338805681838
105.37338815261094
105.37339365855631
105.37342373819375
105.3735776696181
105.37434108655255
105.37794998934073
105.39411933948956
105.46173674295886
105.72075241166614
106.60992488786867
109.2862048567804
116.21034736672115
131.44675872840057
159.4328781221079
162.2183961446121
132.13500598594672
115.43739365154995
107.43458221295653
104.03497894992219
102.72020146885887
102.24715854825264
102.0862779428047
102.03395240436097
102.01753724681859
102.01253788759173
102.01105253812682
102.01062040983332
102.01049704333549
102.01046214427151
102.01045240981779
102.01045041251834
102.01045184225967
102.01046293035064
102.0105203574068
102.010802915591
102.01213296563135
102.01808334536703
102.04306196462292
102.14000769457604
102.4823805259504
103.5666183452061
106.6099224270491
114.10899352259536
130.0462565730396
158.66827146250358
159.7563233975136
130.43708616871518
114.01019892631842
106.09392670556633
102.72019817353127
101.41282297148382
100.94184632148398
100.78153355543634
100.72936277458588
100.71298895957545
100.70800080819589
100.70651847756302
100.7060870562844
100.70596386627687
100.70592919420548
100.70591977869596
100.70591786027437
100.70592116815801
100.70594132073549
100.70604043804497
100.7065050150633
100.70857505493967
100.71727106494379
100.75131170804936
100.87405410416395
101.27788011907232
102.48238026375179
105.72075302586008
113.4721910614931
129.66093454530042
158.47449924378714
158.8650940514388
129.83530025491257
113.50185103633575
105.61318842817268
102.24715506901225
100.94184588989302
100.47141288198154
100.31124289195922
100.25910906142163
100.24274490598974
100.23775927865907
100.23627760219303
100.23584644689028
100.23572318726968
100.23568853543613
100.23567921052305
100.23567794738025
100.23568413391823
100.23571733132906
100.23587246048545
100.23656038722764
100.2394475401279
100.25081381041255
100.29244458323446
100.43347687165193
100.87405378576958
102.14000649385821
105.46173415927404
113.30251620776474
129.56635903966472
158.42987320452337
158.56122432490466
129.63324360346428
113.33022920801011
105.45008223157355
102.08627621465337
100.7815343506759
100.31124278749724
100.15110819126497
100.09898301454598
100.08262112708638
100.07763605204212
100.07615451164716
100.07572338039772
100.07560016348239
100.07556558361279
100.07555640467208
100.07555602320693
100.07556613753185
100.07561587388223
100.07583601261359
100.07675822149507
100.08040273047916
100.09391424936742
100.14075140101465
100.29244449350598
100.75131162930278
102.04306200220779
105.39411942802847
113.26157943521993
129.54498961083337
158.4202561132808
158.462283525171
129.5682275957603
113.27474999483269
105.39712663289276
102.03395235137283
100.72936213297447
100.25910909860498
100.09898319795924
100.0468600572848
100.03049869099924
100.02551373414671
100.02403223647397
100.02360110042453
100.02347789657901
100.02344336760275
100.0234344569334
100.02343522130353
100.02345008080565
100.02351816939307
100.02380339677603
100.02493375151379
100.02916512804237
100.0441070083744
100.0939143080096
100.25081375580841
100.71727083949463
102.01808313518859
105.37794810155081
113.25243124909908
129.5404785294288
158.41832198543506
158.43125530936362
129.54793032290132
113.25744266490248
105.38054167442567
102.01754056477495
100.71298905910332
100.24274527227719
100.08262115218064
100.03049868515524
100.01413740128771
100.00915248638012
100.007670992755
100.00723986418434
100.00711668069427
100.00708222246494
100.00707363726089
100.00707572644617
100.00709562293711
100.00718133297275
100.00752229268527
100.00880893332506
100.01342207829076
100.02916510797672
100.0804027015913
100.23944754951826
100.70857504848898
102.01213307580589
105.37433555215293
113.25048758516596
129.5395438147428
158.41791344463869
158.4218327900731
129.54183420836523
113.25219693662886
105.3754972527973
102.01253735802356
100.70800125653517
100.23775978978671
100.07763605021681
100.02551375610214
100.0091524850703
100.00416758059511
100.00268608713687
100.00225496563596
100.00213180307614
100.00209743616027
100.00208921265958
100.00209265464245
100.00211721802538
100.00221752144554
100.00259916956605
100.00398528806569
100.00880893974912
100.0249337587133
100.0767581928837
100.2365603055829
100.70650484168294
102.01080198549094
105.37357723463461
113.25010787680829
129.53938783825782
158.41783782740126
158.41893220341203
129.54005168837475
113.25064700255153
105.37400214026421
102.0110517544629
100.7065189769156
100.23627745987527
100.07615452613842
100.02403219539218
100.00767099303232
100.00268608999248
100.00120459789453
100.00077348448922
100.00065034747757
100.00061607891526
100.00060821284687
100.00061286744334
100.00064118137898
100.00075187772634
100.0011589315548
100.00259917330857
100.00752229763266
100.02380338665382
100.07583605927776
100.23587259562711
100.70604106727055
102.01051954217705
105.37342192361594
113.25002999827038
129.53934657719626
158.41784819910936
158.4181470327232
129.53955195741602
113.25020418505038
105.37355750131171
102.01062102344004
100.7060883486433
100.23584633522117
100.07572348140955
100.02360107357944
100.00723986991636
100.00225496383165
100.0007734837076
100.00034238283854
100.0002192775298
100.00018510695055
100.00017755496897
100.00018316092557
100.00021408790734
100.0003311631682
100.00075187635485
100.00221752067493
100.00718133976001
100.02351813812638
100.07561585681317
100.23571727737892
100.70594105084929
102.01046261941006
105.37339309568256
113.25001830316562
129.53932087878817
158.41783394651029
158.41791365852583
129.53940113462932
113.2500768243618
105.37343080394635
102.01049732533258
100.70596320277339
100.23572315482292
100.07560009182507
100.02347788241082
100.00711669087838
100.00213180003131
100.00065034711022
100.00021927743069
100.00009621953501
100.00006214607959
100.00005484444593
100.00006110618948
100.0000936161708
100.00021408775274
100.00064118172878
100.00211721728466
100.00709562655409
100.02345007779016
100.07556619270896
100.2356843262558
100.7059208762429
102.01045108239771
105.37338647586515
113.25001178320363
129.53934255054196
158.4178313777906
158.41786080996434
129.53936833179628
113.2500183859197
105.37339898087332
102.0104647058741
100.70592884660059
100.2356888488594
100.07556554331326
100.02344336402615
100.0070822206816
100.0020974355525
100.00061607940172
100.00018510684005
100.00006214612728
100.00002818881673
100.0000210836116
100.00002775294621
100.00006110613333
100.00018316070498
100.00061286685461
100.00209265494529
100.00707572381688
100.02343519507129
100.07555600720416
100.23567784477952
100.70591774941279
102.01045018753983
105.37338773171977
113.2500042633436
129.539337282773
158.417828320548
158.41783514697957
129.53935711935804
113.2500053162595
105.37338999359018
102.01045062477695
100.70591961811111
100.23567897754951
100.07555640262045
100.02343447098539
100.00707363292247
100.00208921271695
100.00060821171171
100.00017755495705
100.00005484436166
100.00002108360988
100.00001416451428
100.00002108362472
100.0000548443803
100.00017755523405
100.00060821221894
100.0020892116665
100.00707364218421
100.02343445572532
100.07555646876706
100.23567910084542
100.70591946813455
102.01045211070272
105.37338859422087
113.2500188375327
129.53933626679083
158.41784279996472
158.4178445412389
129.53931730809916
113.25001377957194
105.37339399971532
102.01044956089818
100.70591866731114
100.23567783305477
100.07555606296364
100.02343519411579
100.0070757302435
100.0020926580096
100.00061286667746
100.00018316119339
100.0000611061419
100.00002775295953
100.00002108363768
100.00002818884364
100.00006214602
100.00018510692671
100.00061607851438
100.00209743352575
100.00708222014767
100.02344334348663
100.07556554229735
100.23568853093278
100.70592918286852
102.01046238660574
105.37339470645837
113.25002430634277
129.53934196580784
158.41785127724657
158.41785847022084
129.53932406429954
113.25001791811009
105.37338349605942
102.010451518048
100.70592044076665
100.23568409617468
100.0755662316444
100.02345004705533
100.00709563008652
100.0021172156517
100.00064118081555
100.0002140876948
100.00009361612238
100.00006110621726
100.00005484446538
100.00006214608794
100.00009621961453
100.00021927757037
100.00065034673283
100.0021318025523
100.00711668517289
100.02347790191897
100.07560013189865
100.23572311345893
100.70596372591608
102.01049630038727
105.37343467065874
113.25005724296004
129.53938937751607
158.41792350702866
158.4178072188491
129.5393345644783
113.25002615774271
105.37338815644945
102.01046344969363
100.70594043988443
100.23571726164586
100.07561579823694
100.0235181429189
100.00718134503005
100.0022175186038
100.0007518775536
100.00033116304868
100.00021408785061
100.00018316090978
100.00017755495843
100.00018510693114
100.0002192776159
100.00034238268249
100.00077348352261
100.0022549650561
100.00723986856555
100.02360109053178
100.07572342752346
100.23584659164023
100.70608771927449
102.01061955795514
105.3735599005098
113.25019011709236
129.53954361238291
158.41816431162852
158.41783270721206
129.53935735145058
113.25002107069808
105.37342197783445
102.01051804981083
100.70604038345598
100.23587272030046
100.07583597106424
100.02380340034698
100.0075222929925
100.00259917048639
100.0011589313681
100.0007518775311
100.00064118147125
100.00061286762745
100.00060821286687
100.0006160789233
100.00065034753123
100.00077348431152
100.00120459859393
100.00268608816214
100.00767099888239
100.0240322058082
100.07615449666162
100.23627754787667
100.70651821322492
102.01105230541127
105.37399075605275
113.25063764205555
129.54005835831583
158.41897333069835
158.4178447279414
129.53939420769257
113.25009389909211
105.37357840167239
102.01080032870752
100.70650484905357
100.23656014951057
100.07675821509564
100.02493377722146
100.00880893346118
100.00398529219201
100.00259916966694
100.00221752129991
100.0021172178393
100.00209265447799
100.00208921271015
100.00209743654031
100.00213180287452
100.00225496569026
100.00268608752944
100.00416757995946
100.0091524894984
100.02551373234222
100.07763610642345
100.23775945611786
100.70800043796037
102.01253788446026
105.37549151691587
113.25219925601789
129.54187312240128
158.42178022707952
158.4179128258715
129.53951885800706
113.2504868267086
105.37433205393154
102.0121314760881
100.70857546964913
100.2394473078849
100.08040274810394
100.02916509531185
100.01342206995885
100.0088089324445
100.00752229161499
100.00718133325279
100.00709562503641
100.0070757266959
100.00707363712868
100.00708222262297
100.00711668009524
100.00723986441913
100.00767099229695
100.00915248857144
100.01413740237422
100.0304986680966
100.08262115519462
100.24274495315548
100.71298933331997
102.01753671048085
105.38054171575182
113.25746118672582
129.5479963243762
158.43125880591003
158.418344137333
129.54046754719047
113.25244248792019
105.37794802761447
102.0180846849533
100.71727092883188
100.25081402592254
100.09391445428344
100.04410704225073
100.02916518372778
100.02493379608184
100.0238034355687
100.02351820640203
100.02345011774801
100.02343526054733
100.02343449930328
100.02344340456617
100.02347793660545
100.02360113993754
100.02403227372153
100.02551377394047
100.03049871555483
100.04686009223602
100.0989830656819
100.25910875370363
100.72936230177461
102.03395059106248
105.39713024859485
113.27477669009666
129.56818858518443
158.46227477810183
158.4202506915387
129.54500879910822
113.26158058957661
105.39411919398185
102.04306449648283
100.75131152586903
100.29244489407992
100.14075153780621
100.09391436228321
100.08040285116226
100.07675833793502
100.07583613780407
100.0756160186935
100.07556626429822
100.07555614598922
100.07555652944117
100.07556570281842
100.07560028838789
100.07572350577814
100.07615464321267
100.077636172221
100.08262124268252
100.09898312913597
100.15110817636075
100.31124300859192
100.78153315999613
102.0862768738349
105.45009127395359
113.3302582941307
129.63322970394375
158.56121626678026
158.42985837174464
129.56637554825318
113.30251295209838
105.46173647219561
102.14000614358109
100.87405439403973
100.4334772964317
100.29244473005242
100.25081403872986
100.23944777990206
100.23656057748478
100.23587263519369
100.23571750131386
100.23568432538475
100.23567816557414
100.23567938232156
100.235688737069
100.23572338326626
100.23584662871778
100.23627780505649
100.23775946850508
100.24274510177018
100.2591091992413
100.31124306340634
100.47141339174146
100.94184612137371
102.24715826456605
105.61320277732774
113.50183008704406
129.8352885235234
158.86509608425854
158.47450493776662
129.66092187187823
113.47218349344317
105.72075587978094
102.48237876876433
101.27788053799443
100.87405411497534
100.75131168080368
100.71727104084655
100.7085750054394
100.70650504162042
100.70604062092691
100.70594136013125
100.7059211745778
100.70591787500256
100.70591976633682
100.70592922163135
100.70596389812435
100.70608713551967
100.70651847533495
100.7080008494384
100.71298902223727
100.72936274117288
100.78153370484732
100.94184615369772
101.41282385917208
102.72020306071367
106.09394043319963
114.0101906031944
130.43707420905318
159.75632460864682
158.66827159269073
130.0462362001368
114.10899142204049
106.60991772420736
103.56661731219502
102.48237956758756
102.14000610081406
102.04306065434325
102.01808231353537
102.01213161805357
102.01080146813983
102.01051882235838
102.01046156074383
102.01045064874077
102.01044892267701
102.01045113962026
102.01046081803598
102.010495624187
102.01061910775537
102.01105119390496
102.01253653552074
102.0175357551767
102.03395125545654
102.08627679884658
102.24715718821018
102.72020168032682
104.0349836299664
107.43456999316012
115.4373826748607
132.1349990778683
162.21840705059583
159.43288415367357
131.4467636797215
116.21036566108647
109.28621063559045
106.60993305110058
105.72075942728642
105.46174334114178
105.39412575062379
105.37795617785234
105.37434780869151
105.3735851994614
105.37343047574095
105.37340019778571
105.37339468964541
105.37339458808869
105.37339691561081
105.37340659928773
105.37344134718406
105.37356580603696
105.37400187448465
105.37550076851049
105.3805490421942
105.39714160106506
105.45010045558365
105.61320976485764
106.0939459513641
107.43457737492763
110.91782466151278
119.1770537531154
136.59951585824734
168.50250271034096
162.07502273553973
135.81840310626222
122.11939342596192
116.21035433112716
114.10900788828933
113.47219726007779
113.30253065493626
113.26159934103258
113.25244129246394
113.25050734133895
113.25011586197772
113.25004070621905
113.25002715363608
113.25002361573173
113.25002377837663
113.250026857227
113.25003709415685
113.25007340046153
113.25020221941894
113.25065429925077
113.25221125560145
113.25746894889448
113.27479425569577
113.33027088877833
113.50184437061418
114.01019837767802
115.43739096915674
119.17706212357801
128.13812970073326
147.29434863691722
182.9431076304311
169.71873258119172
147.1067807825793
135.81839226116512
131.44675811822677
130.04626738692693
129.66095633432508
129.56636841387834
129.5450110502662
129.54048259602317
129.53956672320922
129.5393877112287
129.5393532964862
129.53934696090428
129.53934725366747
129.53934742443306
129.53935027328205
129.53936106989164
129.53940302773327
129.53955270615046
129.54007570678758
129.54188148354388
129.54799546878309
129.56821773402694
129.63324234707264
129.8353016508941
130.43708144304318
132.13500151536982
136.5995338642286
147.2943498158741
169.9871195246882
211.9144712970164
188.0468388319233
169.71871319346678
162.07501629452796
159.43288722303453
158.66826331419074
158.47450816839083
158.42986546393135
158.4202684560454
158.41830716402842
158.41792065723828
158.41784903613754
158.41783640275725
158.41783349575763
158.4178325000283
158.41783445665462
158.41783923307193
158.41785846991112
158.4179247347569
158.4181577420335
158.4189745624485
158.42178523103894
158.4312437217048
158.46229094537105
158.56121992174207
158.86509370033957
159.75632331261144
162.21839803633878
168.50250580340966
182.94309442032744
211.91445585142222
259.46496055523505
