# vtk DataFile Version 2.0
Unstructured Grid Example
ASCII
DATASET UNSTRUCTURED_GRID

POINTS 961 float
0.150000006 -0.00839745998 0
0.146666661 -0.00839745998 0
0.143333331 -0.00839745998 0
0.140000001 -0.00839745998 0
0.13666667 -0.00839745998 0
0.13333334 -0.00839745998 0
0.129999995 -0.00839745998 0
0.126666665 -0.00839745998 0
0.123333335 -0.00839745998 0
0.119999997 -0.00839745998 0
0.116666667 -0.00839745998 0
0.113333337 -0.00839745998 0
0.109999999 -0.00839745998 0
0.106666669 -0.00839745998 0
0.103333332 -0.00839745998 0
0.100000001 -0.00839745998 0
0.0966666639 -0.00839745998 0
0.0933333337 -0.00839745998 0
0.0900000036 -0.00839745998 0
0.086666666 -0.00839745998 0
0.0833333358 -0.00839745998 0
0.0799999982 -0.00839745998 0
0.0766666681 -0.00839745998 0
0.0733333305 -0.00839745998 0
0.0700000003 -0.00839745998 0
0.0666666701 -0.00839745998 0
0.0633333325 -0.00839745998 0
0.0599999987 -0.00839745998 0
0.0566666685 -0.00839745998 0
0.0533333346 -0.00839745998 0
0.0500000007 -0.00839745998 0
0.148333326 -0.0112842107 0
0.144999996 -0.0112842107 0
0.141666666 -0.0112842107 0
0.138333336 -0.0112842107 0
0.135000005 -0.0112842107 0
0.13166666 -0.0112842107 0
0.12833333 -0.0112842107 0
0.125 -0.0112842107 0
0.12166667 -0.0112842107 0
0.118333332 -0.0112842107 0
0.115000002 -0.0112842107 0
0.111666664 -0.0112842107 0
0.108333334 -0.0112842107 0
0.104999997 -0.0112842107 0
0.101666667 -0.0112842107 0
0.0983333364 -0.0112842107 0
0.0949999988 -0.0112842107 0
0.0916666687 -0.0112842107 0
0.088333331 -0.0112842107 0
0.0850000009 -0.0112842107 0
0.0816666633 -0.0112842107 0
0.0783333331 -0.0112842107 0
0.075000003 -0.0112842107 0
0.0716666654 -0.0112842107 0
0.0683333352 -0.0112842107 0
0.0649999976 -0.0112842107 0
0.0616666675 -0.0112842107 0
0.0583333336 -0.0112842107 0
0.0549999997 -0.0112842107 0
0.0516666658 -0.0112842107 0
0.0483333319 -0.0112842107 0
0.146666661 -0.0141709624 0
0.143333331 -0.0141709624 0
0.140000001 -0.0141709624 0
0.13666667 -0.0141709624 0
0.13333334 -0.0141709624 0
0.129999995 -0.0141709624 0
0.126666665 -0.0141709624 0
0.123333335 -0.0141709624 0
0.119999997 -0.0141709624 0
0.116666667 -0.0141709624 0
0.113333337 -0.0141709624 0
0.109999999 -0.0141709624 0
0.106666669 -0.0141709624 0
0.103333332 -0.0141709624 0
0.100000001 -0.0141709624 0
0.0966666639 -0.0141709624 0
0.0933333337 -0.0141709624 0
0.0900000036 -0.0141709624 0
0.086666666 -0.0141709624 0
0.0833333358 -0.0141709624 0
0.0799999982 -0.0141709624 0
0.0766666681 -0.0141709624 0
0.0733333305 -0.0141709624 0
0.0700000003 -0.0141709624 0
0.0666666701 -0.0141709624 0
0.0633333325 -0.0141709624 0
0.0599999987 -0.0141709624 0
0.0566666685 -0.0141709624 0
0.0533333346 -0.0141709624 0
0.0500000007 -0.0141709624 0
0.0466666669 -0.0141709624 0
0.144999996 -0.0170577131 0
0.141666666 -0.0170577131 0
0.138333336 -0.0170577131 0
0.135000005 -0.0170577131 0
0.13166666 -0.0170577131 0
0.12833333 -0.0170577131 0
0.125 -0.0170577131 0
0.12166667 -0.0170577131 0
0.118333332 -0.0170577131 0
0.115000002 -0.0170577131 0
0.111666664 -0.0170577131 0
0.108333334 -0.0170577131 0
0.104999997 -0.0170577131 0
0.101666667 -0.0170577131 0
0.0983333364 -0.0170577131 0
0.0949999988 -0.0170577131 0
0.0916666687 -0.0170577131 0
0.088333331 -0.0170577131 0
0.0850000009 -0.0170577131 0
0.0816666633 -0.0170577131 0
0.0783333331 -0.0170577131 0
0.075000003 -0.0170577131 0
0.0716666654 -0.0170577131 0
0.0683333352 -0.0170577131 0
0.0649999976 -0.0170577131 0
0.0616666675 -0.0170577131 0
0.0583333336 -0.0170577131 0
0.0549999997 -0.0170577131 0
0.0516666658 -0.0170577131 0
0.0483333319 -0.0170577131 0
0.0450000018 -0.0170577131 0
0.143333331 -0.0199444648 0
0.140000001 -0.0199444648 0
0.13666667 -0.0199444648 0
0.13333334 -0.0199444648 0
0.129999995 -0.0199444648 0
0.126666665 -0.0199444648 0
0.123333335 -0.0199444648 0
0.119999997 -0.0199444648 0
0.116666667 -0.0199444648 0
0.113333337 -0.0199444648 0
0.109999999 -0.0199444648 0
0.106666669 -0.0199444648 0
0.103333332 -0.0199444648 0
0.100000001 -0.0199444648 0
0.0966666639 -0.0199444648 0
0.0933333337 -0.0199444648 0
0.0900000036 -0.0199444648 0
0.086666666 -0.0199444648 0
0.0833333358 -0.0199444648 0
0.0799999982 -0.0199444648 0
0.0766666681 -0.0199444648 0
0.0733333305 -0.0199444648 0
0.0700000003 -0.0199444648 0
0.0666666701 -0.0199444648 0
0.0633333325 -0.0199444648 0
0.0599999987 -0.0199444648 0
0.0566666685 -0.0199444648 0
0.0533333346 -0.0199444648 0
0.0500000007 -0.0199444648 0
0.0466666669 -0.0199444648 0
0.043333333 -0.0199444648 0
0.141666666 -0.0228312165 0
0.138333336 -0.0228312165 0
0.135000005 -0.0228312165 0
0.13166666 -0.0228312165 0
0.12833333 -0.0228312165 0
0.125 -0.0228312165 0
0.12166667 -0.0228312165 0
0.118333332 -0.0228312165 0
0.115000002 -0.0228312165 0
0.111666664 -0.0228312165 0
0.108333334 -0.0228312165 0
0.104999997 -0.0228312165 0
0.101666667 -0.0228312165 0
0.0983333364 -0.0228312165 0
0.0949999988 -0.0228312165 0
0.0916666687 -0.0228312165 0
0.088333331 -0.0228312165 0
0.0850000009 -0.0228312165 0
0.0816666633 -0.0228312165 0
0.0783333331 -0.0228312165 0
0.075000003 -0.0228312165 0
0.0716666654 -0.0228312165 0
0.0683333352 -0.0228312165 0
0.0649999976 -0.0228312165 0
0.0616666675 -0.0228312165 0
0.0583333336 -0.0228312165 0
0.0549999997 -0.0228312165 0
0.0516666658 -0.0228312165 0
0.0483333319 -0.0228312165 0
0.0450000018 -0.0228312165 0
0.0416666679 -0.0228312165 0
0.140000001 -0.0257179681 0
0.13666667 -0.0257179681 0
0.13333334 -0.0257179681 0
0.129999995 -0.0257179681 0
0.126666665 -0.0257179681 0
0.123333335 -0.0257179681 0
0.119999997 -0.0257179681 0
0.116666667 -0.0257179681 0
0.113333337 -0.0257179681 0
0.109999999 -0.0257179681 0
0.106666669 -0.0257179681 0
0.103333332 -0.0257179681 0
0.100000001 -0.0257179681 0
0.0966666639 -0.0257179681 0
0.0933333337 -0.0257179681 0
0.0900000036 -0.0257179681 0
0.086666666 -0.0257179681 0
0.0833333358 -0.0257179681 0
0.0799999982 -0.0257179681 0
0.0766666681 -0.0257179681 0
0.0733333305 -0.0257179681 0
0.0700000003 -0.0257179681 0
0.0666666701 -0.0257179681 0
0.0633333325 -0.0257179681 0
0.0599999987 -0.0257179681 0
0.0566666685 -0.0257179681 0
0.0533333346 -0.0257179681 0
0.0500000007 -0.0257179681 0
0.0466666669 -0.0257179681 0
0.043333333 -0.0257179681 0
0.0399999991 -0.0257179681 0
0.138333336 -0.0286047198 0
0.135000005 -0.0286047198 0
0.13166666 -0.0286047198 0
0.12833333 -0.0286047198 0
0.125 -0.0286047198 0
0.12166667 -0.0286047198 0
0.118333332 -0.0286047198 0
0.115000002 -0.0286047198 0
0.111666664 -0.0286047198 0
0.108333334 -0.0286047198 0
0.104999997 -0.0286047198 0
0.101666667 -0.0286047198 0
0.0983333364 -0.0286047198 0
0.0949999988 -0.0286047198 0
0.0916666687 -0.0286047198 0
0.088333331 -0.0286047198 0
0.0850000009 -0.0286047198 0
0.0816666633 -0.0286047198 0
0.0783333331 -0.0286047198 0
0.075000003 -0.0286047198 0
0.0716666654 -0.0286047198 0
0.0683333352 -0.0286047198 0
0.0649999976 -0.0286047198 0
0.0616666675 -0.0286047198 0
0.0583333336 -0.0286047198 0
0.0549999997 -0.0286047198 0
0.0516666658 -0.0286047198 0
0.0483333319 -0.0286047198 0
0.0450000018 -0.0286047198 0
0.0416666679 -0.0286047198 0
0.038333334 -0.0286047198 0
0.13666667 -0.0314914696 0
0.13333334 -0.0314914696 0
0.129999995 -0.0314914696 0
0.126666665 -0.0314914696 0
0.123333335 -0.0314914696 0
0.119999997 -0.0314914696 0
0.116666667 -0.0314914696 0
0.113333337 -0.0314914696 0
0.109999999 -0.0314914696 0
0.106666669 -0.0314914696 0
0.103333332 -0.0314914696 0
0.100000001 -0.0314914696 0
0.0966666639 -0.0314914696 0
0.0933333337 -0.0314914696 0
0.0900000036 -0.0314914696 0
0.086666666 -0.0314914696 0
0.0833333358 -0.0314914696 0
0.0799999982 -0.0314914696 0
0.0766666681 -0.0314914696 0
0.0733333305 -0.0314914696 0
0.0700000003 -0.0314914696 0
0.0666666701 -0.0314914696 0
0.0633333325 -0.0314914696 0
0.0599999987 -0.0314914696 0
0.0566666685 -0.0314914696 0
0.0533333346 -0.0314914696 0
0.0500000007 -0.0314914696 0
0.0466666669 -0.0314914696 0
0.043333333 -0.0314914696 0
0.0399999991 -0.0314914696 0
0.0366666652 -0.0314914696 0
0.135000005 -0.0343782231 0
0.13166666 -0.0343782231 0
0.12833333 -0.0343782231 0
0.125 -0.0343782231 0
0.12166667 -0.0343782231 0
0.118333332 -0.0343782231 0
0.115000002 -0.0343782231 0
0.111666664 -0.0343782231 0
0.108333334 -0.0343782231 0
0.104999997 -0.0343782231 0
0.101666667 -0.0343782231 0
0.0983333364 -0.0343782231 0
0.0949999988 -0.0343782231 0
0.0916666687 -0.0343782231 0
0.088333331 -0.0343782231 0
0.0850000009 -0.0343782231 0
0.0816666633 -0.0343782231 0
0.0783333331 -0.0343782231 0
0.075000003 -0.0343782231 0
0.0716666654 -0.0343782231 0
0.0683333352 -0.0343782231 0
0.0649999976 -0.0343782231 0
0.0616666675 -0.0343782231 0
0.0583333336 -0.0343782231 0
0.0549999997 -0.0343782231 0
0.0516666658 -0.0343782231 0
0.0483333319 -0.0343782231 0
0.0450000018 -0.0343782231 0
0.0416666679 -0.0343782231 0
0.038333334 -0.0343782231 0
0.0350000001 -0.0343782231 0
0.13333334 -0.0372649729 0
0.129999995 -0.0372649729 0
0.126666665 -0.0372649729 0
0.123333335 -0.0372649729 0
0.119999997 -0.0372649729 0
0.116666667 -0.0372649729 0
0.113333337 -0.0372649729 0
0.109999999 -0.0372649729 0
0.106666669 -0.0372649729 0
0.103333332 -0.0372649729 0
0.100000001 -0.0372649729 0
0.0966666639 -0.0372649729 0
0.0933333337 -0.0372649729 0
0.0900000036 -0.0372649729 0
0.086666666 -0.0372649729 0
0.0833333358 -0.0372649729 0
0.0799999982 -0.0372649729 0
0.0766666681 -0.0372649729 0
0.0733333305 -0.0372649729 0
0.0700000003 -0.0372649729 0
0.0666666701 -0.0372649729 0
0.0633333325 -0.0372649729 0
0.0599999987 -0.0372649729 0
0.0566666685 -0.0372649729 0
0.0533333346 -0.0372649729 0
0.0500000007 -0.0372649729 0
0.0466666669 -0.0372649729 0
0.043333333 -0.0372649729 0
0.0399999991 -0.0372649729 0
0.0366666652 -0.0372649729 0
0.0333333351 -0.0372649729 0
0.13166666 -0.0401517227 0
0.12833333 -0.0401517227 0
0.125 -0.0401517227 0
0.12166667 -0.0401517227 0
0.118333332 -0.0401517227 0
0.115000002 -0.0401517227 0
0.111666664 -0.0401517227 0
[...]
POINT_DATA 961
SCALARS Temp float 1
LOOKUP_TABLE default
296.1205955859395
246.7128655152943
212.52488652745055
192.10565448419507
181.1769868182068
175.86580163600036
173.4899607687304
172.49902185186312
172.10925120853588
171.9633013078765
171.91087459730397
171.89270098132377
171.88658969890926
171.88458841583298
171.8839493294369
171.88374706873768
171.8836858946623
171.88366781245466
171.88367191145693
171.88370946196895
171.88388955712287
171.88469398419195
171.88811762147444
171.90198615777692
171.9547431059562
172.14085534698594
172.74002787831307
174.4691780878014
178.86314177984266
188.55632264157768
207.40711412415052
246.71288298531533
201.7792157221655
173.30801784167622
157.0578821313334
148.6863917535679
144.7453547774088
143.027753063307
142.32630051392172
142.05506424886386
141.95490737352117
141.91934542229095
141.90713589585715
141.90306457257833
141.90174115941377
141.90131906815498
141.90118933322626
141.90115036773759
141.901142512769
141.901157691641
141.90124577686723
141.90164682425674
141.9033801225344
141.91053044984494
141.93834550441971
142.03932993089165
142.3766914169178
143.39713796725974
146.14468990119585
152.6261978175728
165.87434209096438
188.55633981172775
212.524854567892
173.30800828288258
148.8530788937892
135.0912930299189
128.0555296209165
124.7536698821291
123.31473984091281
122.72602914207205
122.4977481855469
122.41318333313221
122.38306167771938
122.37268810047584
122.36921896695522
122.36808851696647
122.36772843680049
122.36761578291754
122.36758229817487
122.3675816271703
122.36761944966014
122.36780384626579
122.36861223137761
122.37198439758217
122.38531364989653
122.43474978268421
122.60470013172997
123.13874445984531
124.64997249759175
128.4445607411154
136.78757153007174
152.6261881359994
178.8631468586256
192.10562432313685
157.05787376069185
135.09129964048367
122.64500697081178
116.23298250399439
113.20036496065089
111.86902434589005
111.3207315065886
111.10690368897872
111.02730669818837
110.99883572213386
110.98899687231179
110.9856969792034
110.98461823800712
110.98427474439103
110.98416787324645
110.98413876922685
110.98414612611877
110.98422326074285
110.98457388342807
110.98605042688102
110.99195545769705
111.01419716253862
111.09234867523182
111.34551450754306
112.09222908762155
114.07291410593473
118.7442402176089
128.44457024753427
146.14470094186197
174.46917055901088
181.17697016996715
148.68638949131702
128.05553205653646
116.23300695219118
110.08615982822121
107.157866368248
105.86506619045238
105.33031577073196
105.12106255244545
105.04296218286365
105.01496847019749
105.00527845540073
105.00202420211029
105.00095991910725
105.00061980515449
105.00051453474963
105.00048935580384
105.00051221389346
105.00065334470868
105.00126088300402
105.00371009281916
105.01304042393139
105.04637859852245
105.1570256488983
105.49470352387924
106.4330930227947
108.78658220915825
114.07291034228405
124.64997005901533
143.3971350603885
172.74003455193977
175.86578759431814
144.7453705907789
124.75368906991375
113.20034815950977
107.1578607653148
104.26739419662502
102.98761553757164
102.4571704368516
102.24929743934548
102.17162776715162
102.14376632219007
102.13411618499879
102.13087358664491
102.12981288932825
102.12947428992025
102.12937096159992
102.12935097196865
102.12939725285551
102.12963198347975
102.13059230143443
102.13428413183456
102.14764644016897
102.1928649481458
102.33479501122306
102.74491308595262
103.82873700086505
106.43309236569935
112.0922298718487
123.13875015583248
142.37667471895168
172.14084667966512
173.48995960615503
143.02776348131775
123.3147652083948
111.86900350143699
105.86506026205817
102.9876146432926
101.71204211042303
101.18291461429764
100.97544294626334
100.89789347296828
100.87006754120532
100.86042776058217
100.85718836898016
100.8561283843814
100.85579041758018
100.85568911031383
100.8556774246758
100.8557563016645
100.85611332426349
100.85750289518282
100.86258555136223
100.88005943176455
100.93619822249997
101.10381681971955
101.566789492045
102.74491226247466
105.49470105982702
111.3455100649568
122.60469688078744
142.0393271541877
171.95475250203768
172.49902950882026
142.32631501344565
122.72599035189211
111.32071451235444
105.33031319556714
102.45717240873408
101.18291428156448
100.65417771184624
100.44681933316082
100.36930282069567
100.34148615458926
100.33184900231306
100.32861037291131
100.32755080519075
100.32721364857154
100.32711501483939
100.32711424456109
100.32723380860865
100.32773284694996
100.32958176428238
100.33602347802925
100.3571273257909
100.42190633434194
100.60764445472788
101.1038165486145
102.33479473224234
105.15702580273931
111.0923489599164
122.43474024298234
141.93832843972407
171.90197645222386
172.1092491486942
142.05508686374517
122.49770956399766
111.10689150258722
105.12106250440145
102.24929563397
100.97544291145643
100.44681995826843
100.23949310403616
100.1619853973595
100.13417111205243
100.12453466837137
100.12129622088332
100.12023691796026
100.11990066744998
100.11980558607395
100.11981788503107
100.11998280526923
100.12062799668021
100.12290882837318
100.13050822910337
100.15439204265
100.22508933089881
100.42190653298141
100.9361980947957
102.19286447466881
105.04637811276639
111.01419447850823
122.38531618739734
141.91053540545374
171.8881350550641
171.9633221326458
141.95484624174478
122.41316635368604
111.0273052135339
105.0429679991764
102.17162778721799
100.89789444587215
100.36930285155299
100.16198536482732
100.08447981841432
100.05666622561213
100.04702995149927
100.04379162411402
100.04273263401745
100.04239747787844
100.04230646966002
100.04233280365018
100.04254271530561
100.04332065700869
100.04595793844499
100.0544188342765
100.08015873119763
100.15439195583717
100.35712724020112
100.88005944766037
102.14764640576193
105.01304061650396
110.99194668859477
122.37197371706887
141.90336550842747
171.88468432364664
171.91092753675503
141.91930158696522
122.38305599236632
110.99883987004465
105.0149665158595
102.14376716722917
100.87006895018031
100.34148616380249
100.13417121016533
100.05666622166515
100.02885281005916
100.01921658959888
100.01597837947952
100.0149197367276
100.01458582575059
100.01449904861566
100.01453885832616
100.01478840985497
100.01567281366319
100.0185686181717
100.02759183854207
100.05441887087393
100.13050825882294
100.33602337195232
100.86258530564868
102.13428372572147
105.00370855837758
110.98604969647168
122.36861557242733
141.9016547553154
171.88387714423052
171.8926514373108
141.9071139376655
122.37269105182808
110.98900631874854
105.005276557648
102.13411730941831
100.8604272941536
100.33184907705686
100.12453449697378
100.04702995405852
100.0192166076244
100.00958044117193
100.00634236757958
100.00528411627931
100.00495147493709
100.00486865463473
100.00492001485866
100.00520054814808
100.00616041974433
100.00922163159181
100.0185686406697
100.04595796318807
100.1229087891759
100.32958194555306
100.85750333703035
102.13059381861486
105.00125923839786
110.98457094418939
122.36780454108752
141.90124643717544
171.88372279892982
171.88657344129294
141.9030682191988
122.36923505856
110.9856930157926
105.0020253892951
102.13087669329053
100.8571881498761
100.32861074780115
100.1212961159389
100.04379165427282
100.01597836821708
100.00634236244434
100.00310449767132
100.00204670196118
100.00171527097945
100.00163580006517
100.00169601219561
100.00199807590411
100.00300538446629
100.0061604098341
100.01567280889968
100.04332069189725
100.12062786509266
100.32773278195566
100.85611313993262
102.12963137337438
105.00065272389269
110.9842223598126
122.36762379944759
141.90113694069262
171.88367408323472
171.88457489760992
141.90174482021408
122.36810712626952
110.98461278855292
105.00096088939368
102.12981131795253
100.85612834772873
100.32755054020208
100.12023685926772
100.04273268596349
100.01491971940126
100.00528411411757
100.00204670116511
100.00098953905342
100.00065927408158
100.00058243590887
100.00064876225939
100.0009641900993
100.00199807471911
100.00520055062636
100.01478840577381
100.04254273530482
100.11998279340904
100.32723400857616
100.8557568652564
102.12939652575356
105.00051072739564
110.9841435451371
122.36758144668796
141.9011458194217
171.8836678387724
171.88395092866395
141.90133660234048
122.3677192534075
110.98427416291823
105.00062499586319
102.12947361148608
100.85579132876305
100.32721352883661
100.11990065498595
100.04239746790985
100.01458582310867
100.00495147830762
100.00171527015152
100.0006592745272
100.00033035021924
100.00025559582289
100.00032584001221
100.00064876176818
100.00169601041596
100.00492001085404
100.01453885991417
100.04233278932864
100.11981776975387
100.32711417762674
100.85567714009146
102.12935072303776
105.00048899993672
110.98413844621243
122.3675721315293
141.9011472935034
171.88367944202298
171.88374549103878
141.90120688704158
122.3676047237961
110.98416819027538
105.00051083863019
102.1293706556045
100.85568838018054
100.32711501509267
100.11980564641196
100.04230645070308
100.01449904949288
100.00486864658272
100.00163580001411
100.00058243513045
100.00025559581081
100.00018281629445
100.00025559596108
100.00058243534697
100.00163580214658
100.00486865018665
100.01449904314744
100.04230649496627
100.11980558139592
100.32711524551588
100.8556887889109
102.12937026511815
105.00051386166365
110.98416543173079
122.36761994663324
141.90118176779785
171.8837507665242
171.88370115132426
141.90112710634637
122.36758559771036
110.98414813156388
105.00048780590471
102.12935285552484
100.85567713631252
100.32711440343272
100.11981776799914
100.04233282540032
100.01453887813204
100.00492000981964
100.00169601437797
100.00064876187693
100.00032584014855
100.00025559608756
100.00033035048415
100.00065927355861
100.00171527081066
100.0049514721719
100.01458580991476
100.04239746532357
100.1199005613229
100.3272135185548
100.85579040100495
102.1294742425691
105.00062015233685
110.98426622158193
122.36772654206541
141.90130611955968
171.88394146076692
171.88369702988177
141.9011256467275
122.36758850427836
110.98413796551587
105.00051161008626
102.12939544718054
100.85575623529746
100.32723415200213
100.11998266797394
100.0425427523053
100.0147883953774
100.00520054445612
100.0019980740915
100.00096418965397
100.00064876253607
100.00058243607161
100.00065927416976
100.00098953974434
100.00204670228464
100.00528411150904
100.0149197338259
100.04273265832339
100.1202369412181
100.32755068968476
100.85612815332287
102.12981250289268
105.00095860947148
110.9846182117473
122.36808260483905
141.90173346939926
171.8845889037321
171.8836426450124
141.90114995602835
122.36763263083677
110.98421458745328
105.00065432275613
102.12963000710428
100.8561131448825
100.32773256205479
100.12062788762455
100.04332071609028
100.0156727963616
100.00616041807274
100.00300538345931
100.00199807539425
100.00169601209302
100.00163579997617
100.00171527076621
100.00204670265602
100.00310449645775
100.00634236097589
100.01597837606126
100.04379164589388
100.12129618322163
100.32861054549444
100.85718881337219
102.13087512432445
105.00202243806459
110.98569803811888
122.3692184704478
141.90306364094516
171.88659783675567
171.88370451737737
141.90125726735292
122.36779238242154
110.98457167995566
105.00125642264412
102.13059226159683
100.85750368113769
100.32958163282444
100.12290884153103
100.04595793707148
100.01856862419544
100.00922162982474
100.0061604182061
100.00520054902974
100.00492001597466
100.00486865476661
100.00495147507672
100.00528411664533
100.00634236632602
100.00958044582428
100.01921659681815
100.04702998104392
100.12453453736485
100.33184893695679
100.86042756200997
102.13411557659356
105.00527788966698
110.98899010993559
122.37268179744103
141.90712606373557
171.89270010490685
171.88388503789687
141.90166238730873
122.36859874830094
110.9860517941897
105.00370544261104
102.13428377557456
100.86258478751266
100.3360234504505
100.13050833075039
100.05441883842325
100.02759186299376
100.01856861778506
100.01567281250712
100.0147884090217
100.01453885721418
100.01449904887491
100.01458582776888
100.0149197354932
100.01597837967128
100.01921659228229
100.02885280525506
100.05666624064587
100.1341711059388
100.34148635188302
100.87006804917219
102.1437654276843
105.01496865852744
110.99883214369449
122.3830608467676
141.9193446198287
171.91087119772607
171.88468625293595
141.90333926663996
122.37197395934707
110.99194099062623
105.01303745326447
102.14764729868529
100.88005873678739
100.35712739154606
100.15439189522759
100.08015868982059
100.05441882866168
100.04595793209056
100.04332065971842
100.04254272455647
100.04233280484564
100.04230646922515
100.04239747807962
100.04273263173985
100.0437916258767
100.04702994793533
100.0566662364231
100.08447982367677
100.1619852893029
100.36930290663815
100.8978936527112
102.17162869718074
105.04296131207143
111.02730570886933
122.41318937849465
141.95491653322023
171.9633181144398
171.88815947056008
141.9105245336871
122.38533050145742
111.01419430197541
105.04638125905049
102.1928646631075
100.93619895927978
100.42190707090968
100.22508947639483
100.15439229558024
100.13050841541991
100.12290899456224
100.12062815753632
100.11998296231313
100.11981805268539
100.11980576485763
100.1199008266761
100.12023708936944
100.1212963894355
100.12453482634754
100.13417127800578
100.1619854928767
100.23949325997363
100.44681957120689
100.9754420551617
102.24929646398198
105.12105906128052
111.10689623463075
122.49774068287161
142.05504006515204
172.10923494025346
171.9019696562656
141.93834949036622
122.43474118780692
111.09234879800277
105.15703073573259
102.33479469963946
101.1038177884393
100.60764492422851
100.42190673134529
100.35712776103433
100.33602389142384
100.32958221559699
100.32773335018172
100.32723425888662
100.32711468280003
100.32711545455986
100.3272140792654
100.32755124934924
100.32861081662033
100.33184946613122
100.34148657924925
100.36930321583297
100.44681974994596
100.65417772059058
101.18291502627338
102.4571697161216
105.33031404896995
111.32072724034023
122.72602711422525
142.326295254174
172.49901853125667
171.95473646030865
142.03934459072502
122.6046927875531
111.34551422586469
105.4947004298032
102.74491385747748
101.56679070519613
101.10381722645461
100.9361989542281
100.8800601005446
100.86258611053117
100.85750341847928
100.85611381529245
100.85575686034308
100.855678046437
100.85568962369193
100.85579100732778
100.85612895398067
100.85718890585139
100.86042834019804
100.87006808837903
100.89789405335935
100.97544333248145
101.18291509070473
101.7120436416396
102.98761500945515
105.86506584368574
111.86902447560982
123.31473692027191
143.02774888916824
173.48996179282327
172.14085338608427
142.37666070785735
123.13874080712448
112.09223421271022
106.43308958136562
103.82873795076249
102.7449129714402
102.33479487751829
102.1928649091265
102.14764632070685
102.13428420778594
102.13059265227382
102.12963207387264
102.12939727668136
102.12935098865483
102.12937096576424
102.12947434575106
102.12981295613444
102.1308737497102
102.13411618442677
102.1437664049428
102.17162790970221
102.24929739293961
102.45717092066327
102.9876149693735
104.26739597325471
107.1578694626961
113.20037000899966
124.75367640569766
144.7453569853685
175.86579033655906
172.74003458924818
143.3971126330784
124.64996720939277
114.07290220177343
108.78658021105677
106.43309120410872
105.49470026666523
105.15702326180356
105.04637640474309
105.01303779999074
105.00370730075404
105.00125788263155
105.00065066686165
105.00050979422684
105.00048650891503
105.00051202240643
105.00061718678445
105.00095717271813
105.00202159668892
105.00527582689588
105.01496582258069
105.04295931845209
105.12106026036308
105.33031380637317
105.86506368764215
107.15786693670717
110.08616805261228
116.23298663777007
128.0555162690544
148.6863804659899
181.1769801283963
174.46917810609702
146.14470853882727
128.44459449139566
118.74424926091231
114.07292764607476
112.09224004025657
111.34552499639831
111.09235908233273
111.01420718426276
110.99196622464574
110.98606209323395
110.98458468525064
110.98423379594122
110.98415658490823
110.98414933411033
110.98417853320625
110.98428544572407
110.98462925980492
110.98570742369593
110.98900763082041
110.99884656065409
111.02731715299986
111.10691427666094
111.3207416007059
111.8690353790492
113.20037843314132
116.23299870535965
122.64499697363098
135.09127841198398
157.05784968077563
192.10562883446357
178.86315424932565
152.62621605718124
136.78758421439716
128.44457927415147
124.64998979362176
123.13875836278947
122.60471545481016
122.4347659229713
122.38532883437469
122.37199909168673
122.3686260491253
122.36781861334609
122.36763490952929
122.36759610534409
122.3675976745779
122.3676308051584
122.36774313615369
122.36810344404529
122.36923397332806
122.37270295222446
122.38307602668161
122.4131990674561
122.49776341477254
122.72604326223453
123.31475541766916
124.7536863954205
128.05552673078162
135.091285938478
148.85306322958164
173.30799163634006
212.52486557297175
188.55634078415852
165.87436447154974
152.62620151720938
146.14470096560296
143.39714604102818
142.37669895340696
142.0393373119288
141.93835208806996
141.91053906112347
141.90339013298305
141.9016550084763
141.90125345784128
141.90116513332282
141.9011506207705
141.90115837876047
141.90119745922348
141.90132777977945
141.90174864297705
141.90307283098153
141.90714416909694
141.91935322688457
141.95491499767945
142.0550721663014
142.3263097234303
143.02776320168428
144.74536479960923
148.6863839171344
157.05786499252108
173.30799020977796
201.7791888912909
246.71281871597105
207.40712966919085
188.55631801143403
178.86314548953084
174.46918134771985
172.74002619083555
172.14085596078277
171.9547442304886
171.9019880313665
171.88811871727407
171.88469178227479
171.88388953232473
171.8837100938596
171.88367219614378
171.88366887583953
171.88368640588206
171.88374757650053
171.88394885358755
171.88458936206467
171.88658986631418
171.89270051442537
171.91087587197183
171.963302209547
172.10925201106244
172.49902274506144
173.48995876570575
175.8657876724687
181.17697259144816
192.1056279570466
212.52484817264238
246.7128018203375
296.1202210840991
