# vtk DataFile Version 2.0
Unstructured Grid Example
ASCII
DATASET UNSTRUCTURED_GRID

POINTS 961 float
0.150000006 -0.00839745998 0
0.146666661 -0.00839745998 0
0.143333331 -0.00839745998 0
0.140000001 -0.00839745998 0
0.13666667 -0.00839745998 0
0.13333334 -0.00839745998 0
0.129999995 -0.00839745998 0
0.126666665 -0.00839745998 0
0.123333335 -0.00839745998 0
0.119999997 -0.00839745998 0
0.116666667 -0.00839745998 0
0.113333337 -0.00839745998 0
0.109999999 -0.00839745998 0
0.106666669 -0.00839745998 0
0.103333332 -0.00839745998 0
0.100000001 -0.00839745998 0
0.0966666639 -0.00839745998 0
0.0933333337 -0.00839745998 0
0.0900000036 -0.00839745998 0
0.086666666 -0.00839745998 0
0.0833333358 -0.00839745998 0
0.0799999982 -0.00839745998 0
0.0766666681 -0.00839745998 0
0.0733333305 -0.00839745998 0
0.0700000003 -0.00839745998 0
0.0666666701 -0.00839745998 0
0.0633333325 -0.00839745998 0
0.0599999987 -0.00839745998 0
0.0566666685 -0.00839745998 0
0.0533333346 -0.00839745998 0
0.0500000007 -0.00839745998 0
0.148333326 -0.0112842107 0
0.144999996 -0.0112842107 0
0.141666666 -0.0112842107 0
0.138333336 -0.0112842107 0
0.135000005 -0.0112842107 0
0.13166666 -0.0112842107 0
0.12833333 -0.0112842107 0
0.125 -0.0112842107 0
0.12166667 -0.0112842107 0
0.118333332 -0.0112842107 0
0.115000002 -0.0112842107 0
0.111666664 -0.0112842107 0
0.108333334 -0.0112842107 0
0.104999997 -0.0112842107 0
0.101666667 -0.0112842107 0
0.0983333364 -0.0112842107 0
0.0949999988 -0.0112842107 0
0.0916666687 -0.0112842107 0
0.088333331 -0.0112842107 0
0.0850000009 -0.0112842107 0
0.0816666633 -0.0112842107 0
0.0783333331 -0.0112842107 0
0.075000003 -0.0112842107 0
0.0716666654 -0.0112842107 0
0.0683333352 -0.0112842107 0
0.0649999976 -0.0112842107 0
0.0616666675 -0.0112842107 0
0.0583333336 -0.0112842107 0
0.0549999997 -0.0112842107 0
0.0516666658 -0.0112842107 0
0.0483333319 -0.0112842107 0
0.146666661 -0.0141709624 0
0.143333331 -0.0141709624 0
0.140000001 -0.0141709624 0
0.13666667 -0.0141709624 0
0.13333334 -0.0141709624 0
0.129999995 -0.0141709624 0
0.126666665 -0.0141709624 0
0.123333335 -0.0141709624 0
0.119999997 -0.0141709624 0
0.116666667 -0.0141709624 0
0.113333337 -0.0141709624 0
0.109999999 -0.0141709624 0
0.106666669 -0.0141709624 0
0.103333332 -0.0141709624 0
0.100000001 -0.0141709624 0
0.0966666639 -0.0141709624 0
0.0933333337 -0.0141709624 0
0.0900000036 -0.0141709624 0
0.086666666 -0.0141709624 0
0.0833333358 -0.0141709624 0
0.0799999982 -0.0141709624 0
0.0766666681 -0.0141709624 0
0.0733333305 -0.0141709624 0
0.0700000003 -0.0141709624 0
0.0666666701 -0.0141709624 0
0.0633333325 -0.0141709624 0
0.0599999987 -0.0141709624 0
0.0566666685 -0.0141709624 0
0.0533333346 -0.0141709624 0
0.0500000007 -0.0141709624 0
0.0466666669 -0.0141709624 0
0.144999996 -0.0170577131 0
0.141666666 -0.0170577131 0
0.138333336 -0.0170577131 0
0.135000005 -0.0170577131 0
0.13166666 -0.0170577131 0
0.12833333 -0.0170577131 0
0.125 -0.0170577131 0
0.12166667 -0.0170577131 0
0.118333332 -0.0170577131 0
0.115000002 -0.0170577131 0
0.111666664 -0.0170577131 0
0.108333334 -0.0170577131 0
0.104999997 -0.0170577131 0
0.101666667 -0.0170577131 0
0.0983333364 -0.0170577131 0
0.0949999988 -0.0170577131 0
0.0916666687 -0.0170577131 0
0.088333331 -0.0170577131 0
0.0850000009 -0.0170577131 0
0.0816666633 -0.0170577131 0
0.0783333331 -0.0170577131 0
0.075000003 -0.0170577131 0
0.0716666654 -0.0170577131 0
0.0683333352 -0.0170577131 0
0.0649999976 -0.0170577131 0
0.0616666675 -0.0170577131 0
0.0583333336 -0.0170577131 0
0.0549999997 -0.0170577131 0
0.0516666658 -0.0170577131 0
0.0483333319 -0.0170577131 0
0.0450000018 -0.0170577131 0
0.143333331 -0.0199444648 0
0.140000001 -0.0199444648 0
0.13666667 -0.0199444648 0
0.13333334 -0.0199444648 0
0.129999995 -0.0199444648 0
0.126666665 -0.0199444648 0
0.123333335 -0.0199444648 0
0.119999997 -0.0199444648 0
0.116666667 -0.0199444648 0
0.113333337 -0.0199444648 0
0.109999999 -0.0199444648 0
0.106666669 -0.0199444648 0
0.103333332 -0.0199444648 0
0.100000001 -0.0199444648 0
0.0966666639 -0.0199444648 0
0.0933333337 -0.0199444648 0
0.0900000036 -0.0199444648 0
0.086666666 -0.0199444648 0
0.0833333358 -0.0199444648 0
0.0799999982 -0.0199444648 0
0.0766666681 -0.0199444648 0
0.0733333305 -0.0199444648 0
0.0700000003 -0.0199444648 0
0.0666666701 -0.0199444648 0
0.0633333325 -0.0199444648 0
0.0599999987 -0.0199444648 0
0.0566666685 -0.0199444648 0
0.0533333346 -0.0199444648 0
0.0500000007 -0.0199444648 0
0.0466666669 -0.0199444648 0
0.043333333 -0.0199444648 0
0.141666666 -0.0228312165 0
0.138333336 -0.0228312165 0
0.135000005 -0.0228312165 0
0.13166666 -0.0228312165 0
0.12833333 -0.0228312165 0
0.125 -0.0228312165 0
0.12166667 -0.0228312165 0
0.118333332 -0.0228312165 0
0.115000002 -0.0228312165 0
0.111666664 -0.0228312165 0
0.108333334 -0.0228312165 0
0.104999997 -0.0228312165 0
0.101666667 -0.0228312165 0
0.0983333364 -0.0228312165 0
0.0949999988 -0.0228312165 0
0.0916666687 -0.0228312165 0
0.088333331 -0.0228312165 0
0.0850000009 -0.0228312165 0
0.0816666633 -0.0228312165 0
0.0783333331 -0.0228312165 0
0.075000003 -0.0228312165 0
0.0716666654 -0.0228312165 0
0.0683333352 -0.0228312165 0
0.0649999976 -0.0228312165 0
0.0616666675 -0.0228312165 0
0.0583333336 -0.0228312165 0
0.0549999997 -0.0228312165 0
0.0516666658 -0.0228312165 0
0.0483333319 -0.0228312165 0
0.0450000018 -0.0228312165 0
0.0416666679 -0.0228312165 0
0.140000001 -0.0257179681 0
0.13666667 -0.0257179681 0
0.13333334 -0.0257179681 0
0.129999995 -0.0257179681 0
0.126666665 -0.0257179681 0
0.123333335 -0.0257179681 0
0.119999997 -0.0257179681 0
0.116666667 -0.0257179681 0
0.113333337 -0.0257179681 0
0.109999999 -0.0257179681 0
0.106666669 -0.0257179681 0
0.103333332 -0.0257179681 0
0.100000001 -0.0257179681 0
0.0966666639 -0.0257179681 0
0.0933333337 -0.0257179681 0
0.0900000036 -0.0257179681 0
0.086666666 -0.0257179681 0
0.0833333358 -0.0257179681 0
0.0799999982 -0.0257179681 0
0.0766666681 -0.0257179681 0
0.0733333305 -0.0257179681 0
0.0700000003 -0.0257179681 0
0.0666666701 -0.0257179681 0
0.0633333325 -0.0257179681 0
0.0599999987 -0.0257179681 0
0.0566666685 -0.0257179681 0
0.0533333346 -0.0257179681 0
0.0500000007 -0.0257179681 0
0.0466666669 -0.0257179681 0
0.043333333 -0.0257179681 0
0.0399999991 -0.0257179681 0
0.138333336 -0.0286047198 0
0.135000005 -0.0286047198 0
0.13166666 -0.0286047198 0
0.12833333 -0.0286047198 0
0.125 -0.0286047198 0
0.12166667 -0.0286047198 0
0.118333332 -0.0286047198 0
0.115000002 -0.0286047198 0
0.111666664 -0.0286047198 0
0.108333334 -0.0286047198 0
0.104999997 -0.0286047198 0
0.101666667 -0.0286047198 0
0.0983333364 -0.0286047198 0
0.0949999988 -0.0286047198 0
0.0916666687 -0.0286047198 0
0.088333331 -0.0286047198 0
0.0850000009 -0.0286047198 0
0.0816666633 -0.0286047198 0
0.0783333331 -0.0286047198 0
0.075000003 -0.0286047198 0
0.0716666654 -0.0286047198 0
0.0683333352 -0.0286047198 0
0.0649999976 -0.0286047198 0
0.0616666675 -0.0286047198 0
0.0583333336 -0.0286047198 0
0.0549999997 -0.0286047198 0
0.0516666658 -0.0286047198 0
0.0483333319 -0.0286047198 0
0.0450000018 -0.0286047198 0
0.0416666679 -0.0286047198 0
0.038333334 -0.0286047198 0
0.13666667 -0.0314914696 0
0.13333334 -0.0314914696 0
0.129999995 -0.0314914696 0
0.126666665 -0.0314914696 0
0.123333335 -0.0314914696 0
0.119999997 -0.0314914696 0
0.116666667 -0.0314914696 0
0.113333337 -0.0314914696 0
0.109999999 -0.0314914696 0
0.106666669 -0.0314914696 0
0.103333332 -0.0314914696 0
0.100000001 -0.0314914696 0
0.0966666639 -0.0314914696 0
0.0933333337 -0.0314914696 0
0.0900000036 -0.0314914696 0
0.086666666 -0.0314914696 0
0.0833333358 -0.0314914696 0
0.0799999982 -0.0314914696 0
0.0766666681 -0.0314914696 0
0.0733333305 -0.0314914696 0
0.0700000003 -0.0314914696 0
0.0666666701 -0.0314914696 0
0.0633333325 -0.0314914696 0
0.0599999987 -0.0314914696 0
0.0566666685 -0.0314914696 0
0.0533333346 -0.0314914696 0
0.0500000007 -0.0314914696 0
0.0466666669 -0.0314914696 0
0.043333333 -0.0314914696 0
0.0399999991 -0.0314914696 0
0.0366666652 -0.0314914696 0
0.135000005 -0.0343782231 0
0.13166666 -0.0343782231 0
0.12833333 -0.0343782231 0
0.125 -0.0343782231 0
0.12166667 -0.0343782231 0
0.118333332 -0.0343782231 0
0.115000002 -0.0343782231 0
0.111666664 -0.0343782231 0
0.108333334 -0.0343782231 0
0.104999997 -0.0343782231 0
0.101666667 -0.0343782231 0
0.0983333364 -0.0343782231 0
0.0949999988 -0.0343782231 0
0.0916666687 -0.0343782231 0
0.088333331 -0.0343782231 0
0.0850000009 -0.0343782231 0
0.0816666633 -0.0343782231 0
0.0783333331 -0.0343782231 0
0.075000003 -0.0343782231 0
0.0716666654 -0.0343782231 0
0.0683333352 -0.0343782231 0
0.0649999976 -0.0343782231 0
0.0616666675 -0.0343782231 0
0.0583333336 -0.0343782231 0
0.0549999997 -0.0343782231 0
0.0516666658 -0.0343782231 0
0.0483333319 -0.0343782231 0
0.0450000018 -0.0343782231 0
0.0416666679 -0.0343782231 0
0.038333334 -0.0343782231 0
0.0350000001 -0.0343782231 0
0.13333334 -0.0372649729 0
0.129999995 -0.0372649729 0
0.126666665 -0.0372649729 0
0.123333335 -0.0372649729 0
0.119999997 -0.0372649729 0
0.116666667 -0.0372649729 0
0.113333337 -0.0372649729 0
0.109999999 -0.0372649729 0
0.106666669 -0.0372649729 0
0.103333332 -0.0372649729 0
0.100000001 -0.0372649729 0
0.0966666639 -0.0372649729 0
0.0933333337 -0.0372649729 0
0.0900000036 -0.0372649729 0
0.086666666 -0.0372649729 0
0.0833333358 -0.0372649729 0
0.0799999982 -0.0372649729 0
0.0766666681 -0.0372649729 0
0.0733333305 -0.0372649729 0
0.0700000003 -0.0372649729 0
0.0666666701 -0.0372649729 0
0.0633333325 -0.0372649729 0
0.0599999987 -0.0372649729 0
0.0566666685 -0.0372649729 0
0.0533333346 -0.0372649729 0
0.0500000007 -0.0372649729 0
0.0466666669 -0.0372649729 0
0.043333333 -0.0372649729 0
0.0399999991 -0.0372649729 0
0.0366666652 -0.0372649729 0
0.0333333351 -0.0372649729 0
0.13166666 -0.0401517227 0
0.12833333 -0.0401517227 0
0.125 -0.0401517227 0
0.12166667 -0.0401517227 0
0.118333332 -0.0401517227 0
0.115000002 -0.0401517227 0
0.111666664 -0.0401517227 0
[...]
POINT_DATA 961
SCALARS Temp float 1
LOOKUP_TABLE default
311.38475379806135
261.64435141332996
225.85156187974997
203.22004080937296
190.24857783015344
183.4484027161308
180.1559538102801
178.669066355685
178.03684765022837
177.78163284213912
177.6831198605638
177.64654405514358
177.63341532503674
177.6288408026624
177.62728933597322
177.62677331882216
177.62660764354027
177.6265591549601
177.62656986230795
177.62667939228774
177.62716362355394
177.62913787879015
177.63677031038208
177.66464129107902
177.75972127745663
178.05933228906912
178.92025559355744
181.14672267292812
186.26844672048193
196.66691069825788
215.6478222138214
261.64436857213366
215.9081824314213
185.48003575921342
167.01611323652423
156.80398151385975
151.61306588434752
149.16510349257555
148.08381173067446
147.6324932989843
147.45311209999733
147.38477378397369
147.35968155809383
147.3507614929217
147.3476796185925
147.34664016205738
147.34629989904386
147.34619269707838
147.34617095152996
147.34621763254867
147.34646276854275
147.34748637834127
147.35151839719316
147.3665679446264
147.41928771331854
147.5909088742367
148.10400722588398
149.49546661536897
152.87741097982783
160.16987251260366
174.03905609407357
196.66692843931395
225.8515271287134
185.48002417370108
159.08541568938642
143.31929175831146
134.6851172680579
130.32091019387693
128.26782207881953
127.36112645114044
126.98220764502456
126.83128918545572
126.77365272127297
126.75243472926499
126.74487235179427
126.74225332329807
126.74136922881002
126.74107812728295
126.74098904120387
126.74098735826166
126.74109627156207
126.74158604541843
126.74355061313183
126.75100463939658
126.77766834765525
126.86678815278957
127.1422316822577
127.92071786016912
129.9103906568053
134.46164252402195
143.69828418091794
160.16986282274274
186.26845268674666
203.22000622387196
167.01610160991928
143.31929777937825
129.11285288746723
121.2907539539625
117.31183876827615
115.42760957771661
114.59018449298237
114.23816837960749
114.09723583157377
114.04316615820994
114.02318317750797
114.01603682186564
114.013553871874
114.01271472205504
114.01243949386544
114.01236176156576
114.01238573438128
114.01259870774247
114.01348980929362
114.01692100469135
114.02940056671133
114.07200016397384
114.20731762008936
114.60345602233829
115.66186582158731
118.21907434175472
123.76079009183445
134.4616530929104
152.87742243987313
181.14671487674838
190.24855640816034
156.80397632338833
134.68511793893015
121.29078331860687
113.84982448676894
110.03610273873043
108.21880424777355
107.40702020930136
107.06438702176811
106.92675957223423
106.87381814461065
106.85421013382859
106.84718570695132
106.84474239121033
106.84391504309657
106.8436455769835
106.84357945401325
106.84364567983006
106.84402008835326
106.84550282260233
106.85097015602639
106.86995284870717
106.93162497053203
107.11760472284962
107.63396314600278
108.943770765615
111.95851841646261
118.21907006648968
129.9103878672549
149.49546376698103
178.92026221357102
183.44838456368134
151.6130836091541
130.3209325608074
117.31181960058296
110.03609615950836
106.28841367603056
104.49603082249743
103.69321270939798
103.35368527752613
103.21709930791162
103.16449900818004
103.14500019036359
103.13800988242768
103.13557749159723
103.13475456071629
103.13449043106623
103.13444001351183
103.13456795544857
103.13516844384304
103.13743018128328
103.14539851099643
103.17177287473883
103.25332103293093
103.48732141149547
104.10665813222627
105.6104100797288
108.94376987500677
115.66186667453324
127.92072391625635
148.10398977527086
178.0593237356189
180.1559537248882
149.16511519109108
128.26785015363828
115.42758626696003
108.21879725235677
104.49602968633418
102.7124591317805
101.91263897479377
101.57409713374194
101.43782731787108
101.38532644161192
101.36585835096281
101.35887771651386
101.35644818341952
101.355627445814
101.35536941334962
101.35534169341115
101.35555211831412
101.35643680291378
101.3596126209442
101.37029480327175
101.40403229003338
101.50362039377592
101.77709726166465
102.47286287317877
104.10665701268839
107.63396005050883
114.60345072773598
127.14222843117773
147.59090610509796
177.7597306206775
178.6690751238286
148.083828118369
127.36108501249937
114.59016546644916
107.4070174387152
103.6932154146158
101.91263848935763
101.11378409433094
100.77554437695785
100.63936810229701
100.58689530453658
100.56743565169342
100.56045762228977
100.55802940090037
100.55721105184526
100.5569608534131
100.55696203433462
100.557271824719
100.55847597453923
100.5626033203678
100.57588317883298
100.61605339001743
100.7299471407888
101.03174517423867
101.77709686668747
103.48732098022
107.11760496764427
114.20731800571703
126.86677771568506
147.4192702280297
177.66463161699767
178.0368473693863
147.63251793138048
126.98216725208546
114.23815486603974
107.06438706539953
103.35368277337149
101.57409701181953
100.77554534232813
100.43739623166786
100.30124684616098
100.24878182777371
100.22932453216481
100.22234725279628
100.21991991474603
100.21910429932836
100.2188639055806
100.21889857226422
100.2193158817307
100.22084060500546
100.22584652924414
100.24131987075731
100.28643147513468
100.41028804697767
100.72994744437698
101.50362023810784
103.25332044633389
106.931624344645
114.0719971944078
126.77767117264574
147.36657319541246
177.63678805749376
177.7816564550927
147.45305026388465
126.83127119410275
114.09723414147014
106.92676650942398
103.21709924248616
101.43782866912962
100.63936811011338
100.30124678331669
100.16510471929091
100.11264198789814
100.09318533566727
100.08620846658653
100.08378208915725
100.08296966113154
100.0827401993129
100.0828098580998
100.08333142612271
100.08514268499844
100.09086833582258
100.10797978570069
100.15644414120145
100.28643132968756
100.61605326876345
101.40403230437033
103.1717728195065
106.86995307047864
114.02939045666321
126.75099318689803
147.3515032946953
177.62912837266845
177.68317382368056
147.38472874146268
126.77364606600351
114.04317054455856
106.87381532656417
103.16450000893039
101.38532841057115
100.58689532306695
100.24878199349216
100.11264198186258
100.06017988811813
100.04072346152093
100.03374696791619
100.03132164519755
100.03051271241684
100.03029432708175
100.0303968988234
100.03100900611786
100.03304864143401
100.03929836145659
100.05749584318067
100.10797985541073
100.24131991975112
100.57588301141395
101.3702944448796
103.1453979777937
106.85096836821553
114.01692012580175
126.74355426312093
147.34749441388715
177.62715090397668
177.64649229725123
147.35965749831664
126.7524369562997
114.023193364608
106.85420756973565
103.14500163723152
101.36585763954494
100.56743577592029
100.22932424539411
100.09318534073776
100.04072349761877
100.0212672718857
100.01429120764185
100.01186704353009
100.01106160142412
100.01085338846777
100.01098381635217
100.01166633037205
100.01386854607016
100.02045866033679
100.03929840537117
100.09086838073465
100.22584646581679
100.56260361321338
101.35961328194601
103.13743220345884
106.84550076590311
114.01348640843113
126.74158677739203
147.3464635951559
177.62669288398354
177.63339686729952
147.3507636651814
126.74488906574867
114.0160317435875
106.84718712326956
103.13801400168926
101.3588774466846
100.56045821358138
100.2223470830818
100.08620852245213
100.03374694564403
100.01429119717918
100.00731577478646
100.00489293057905
100.00409077178328
100.00389108640772
100.00404278570625
100.00477446062604
100.0070803752112
100.01386852510782
100.03304863202939
100.08514274870747
100.22084038468546
100.55847586974946
101.35643652485444
103.13516765053842
106.84401931946674
114.01259768301082
126.7411010283368
147.3461964418887
177.62657238901733
177.62882577413683
147.34768262790755
126.74227303841293
114.01354759794908
106.84474374672374
103.13557539352685
101.35644816350278
100.5580289846351
100.2199198176041
100.08378218366396
100.03132161213367
100.01186703942014
100.00489292881927
100.00247187007874
100.00167285285926
100.00147987288524
100.00164636239906
100.00240900679849
100.00477445804842
100.01166633560423
100.03100899853062
100.08333146343827
100.21931586203303
100.55727213899651
101.35555293233737
103.13456697541623
106.84364384659497
114.01238279259192
126.7409874271874
147.34617440001796
177.62655906206015
177.62729072660372
147.34665829385114
126.74135941835463
114.01271436622463
106.84392155020035
103.13475373628401
101.35562875995299
100.55721088138405
100.21910428079741
100.08296964238345
100.0305127079826
100.01106160842008
100.00409076999793
100.00167285392429
100.00087740135915
100.00068977461824
100.00086590991384
100.00164636126516
100.00404278175507
100.01098380808168
100.03039690167417
100.0828098313905
100.21889837636263
100.55696192585799
101.35534129456506
103.13443968986229
106.84357904315279
114.01236144539514
126.74097788757578
147.3461894947881
177.62660082955762
177.62677236880913
147.34631853606672
126.74106678955224
114.0124401742852
106.84364092920003
103.1344900763605
101.35536834056185
100.5569608584934
100.21886400680037
100.08274016702845
100.03029432925163
100.01085337160626
100.00389108635578
100.00147987104907
100.00068977459502
100.00050723320419
100.00068977496527
100.00147987159909
100.00389109098857
100.0108533791387
100.03029431683339
100.08274024547525
100.21886389834353
100.55696121533464
101.355368949074
103.13448951983334
106.8436446944881
114.01243673589677
126.74108241688886
147.34629193564118
177.62677674799897
177.62662433771766
147.34616937499467
126.74099289305727
114.01237256513
106.84357759883493
103.1344425095097
101.35534129976199
100.55696229179372
100.21889837419006
100.08280989925665
100.03039693721601
100.01098380615822
100.00404279061301
100.00164636155861
100.00086591025266
100.0006897752723
100.0008774020027
100.00167285165365
100.00409077143782
100.01106159570811
100.03051268162871
100.08296963809745
100.21910411907898
100.55721085934138
101.35562741545901
103.13475448639966
106.8439154178493
114.01270477857224
126.74136717282171
147.34662649623385
177.6272813826519
177.6265889076325
147.34615378600242
126.74099482207461
114.01237605733408
106.84364495400337
103.13456550879741
101.35555204055345
100.55727236436394
100.21931565536315
100.08333149406535
100.03100897797293
100.0116663229664
100.00477445651507
100.00240900574713
100.00164636307674
100.00147987325062
100.00167285307853
100.00247187166957
100.00489293130714
100.0118670340245
100.03132163971526
100.08378213433535
100.2199199533654
100.55802921815918
101.35644784136947
103.13557695233231
106.84474082104619
114.01355364698237
126.74224693770512
147.3476716713866
177.62884142022108
177.62653959173244
147.3462092254699
126.74111011550679
114.01258872285518
106.84402127112085
103.13516585834442
101.35643655981951
100.55847552207995
100.22084042509334
100.08514279117807
100.03304860757066
100.01386854217485
100.00708037293347
100.00477445943623
100.0040427854934
100.00389108620871
100.00409077124083
100.00489293213285
100.00731577213672
100.01429119397005
100.0337469612131
100.08620850566157
100.22234719227176
100.56045789262346
101.35887836638584
103.13801190547284
106.84718348573591
114.01603810214554
126.74487187567985
147.35076073976288
177.63342388873195
177.62667376777244
147.34647438547492
126.741573401263
114.0134874751357
106.84549730755846
103.13743016774976
101.35961377359261
100.56260312969552
100.22584655105321
100.09086833176949
100.03929837369118
100.02045865626724
100.01386854269545
100.01166633246253
100.01098381849594
100.01085338873318
100.01106160180854
100.01186704432473
100.01429120499643
100.02126728133928
100.0407234765756
100.09318538764882
100.22932431168617
100.56743554283608
101.36585804971031
103.14499939960955
106.85420939530543
114.02317546615389
126.75242808702424
147.35967175111736
177.64654353123288
177.62715906379538
147.34750242725048
126.74353650650225
114.01692264590878
106.85096457274182
103.14539807998473
101.37029367271171
100.57588313491391
100.24132003642639
100.1079797961726
100.05749589053059
100.03929835979781
100.03304863886297
100.03100900464872
100.03039689657135
100.03029432755226
100.03051271615637
100.03132164277244
100.03374696806875
100.04072346701848
100.06017987801872
100.11264201449029
100.24878181948269
100.58689561776193
101.38532716722199
103.16449781620624
106.87381847465494
114.04316215271983
126.7736520181351
147.38477320456317
177.68311648532935
177.62913110487773
147.3514767320323
126.75099391668972
114.02938388203835
106.86994917436762
103.17177397028176
101.40403128063522
100.6160534969113
100.28643122334843
100.15644406713474
100.10797977434798
100.0908683235229
100.08514269112348
100.08333144158868
100.08280986020668
100.08274019873382
100.08296966120933
100.08378208550424
100.08620847027076
100.09318532797013
100.11264200748298
100.1651047299789
100.30124665793737
100.63936822842219
101.4378276026426
103.21710057279886
106.92675855089108
114.09723483202191
126.83129574922094
147.45312172872286
177.78164975216774
177.6368131939907
147.36656249979256
126.77768664277178
114.07199702339551
106.93162832752567
103.25332069857065
101.50362152842207
100.72994829542505
100.41028829199082
100.286431912587
100.24132018118533
100.22584680906567
100.22084087741817
100.21931614603108
100.21889885471782
100.21886420505538
100.2191045684977
100.21992020308561
100.22234753617663
100.22932479647343
100.24878210438933
100.30124700068335
100.43739650033447
100.7755447919553
101.57409586246452
103.35368407843339
107.06438277102961
114.238159950337
126.98219968120901
147.63246826988117
178.03683097444653
177.664624537936
147.41929196049603
126.86677862500055
114.20731794380323
107.11761111963543
103.48732105170997
101.77709869547247
101.03174589473245
100.72994775697897
100.61605407139875
100.57588382353381
100.56260402904088
100.55847675105447
100.55727252666327
100.55696271865529
100.5569615374487
100.5572117269532
100.55803009313016
100.56045831187548
100.56743637160822
100.58689596504821
100.63936870602515
100.7755450343025
101.11378413612198
101.91263960649478
103.69321189157665
107.40701831906527
114.59017956332475
127.36112433942736
148.08380600386474
178.66906293260848
177.75971435061751
147.59092382623197
127.14222407695434
114.60345572207282
107.63395930372798
104.10665920928149
102.47286460340298
101.7770978346378
101.50362149488889
101.40403323158846
101.37029560729675
101.35961337974936
101.35643750998456
101.35555292271343
101.35534257965996
101.35537015933387
101.35562829319065
101.35644900157
101.35887849151993
101.36585917914532
101.38532722167878
101.43782816289338
101.57409767529566
101.91263963419856
102.71246134091601
104.49603005762464
108.21880387197496
115.42760977065979
128.2678189283721
149.1650993321716
180.15595589777848
178.0593307077138
148.10397534543293
127.92071397527505
115.6618715898498
108.94376649428844
105.6104113288583
104.10665790393597
103.4873211871421
103.25332097950806
103.17177271392345
103.14539861875025
103.1374306036867
103.13516856066185
103.13456798915439
103.13444002911253
103.13449044781852
103.13475462907327
103.13557757422606
103.13801008406297
103.14500019283737
103.164499107921
103.21709950353872
103.3536852224253
103.69321343136444
104.49602994128321
106.28841584106097
110.03610653630729
117.31184476787232
130.32091784787733
151.61306907367745
183.44838769833433
178.9202620419851
149.49544065472065
129.910384693381
118.21906045200127
111.95851597759459
108.94376854088061
107.63395902679308
107.11760187386214
106.93162215443216
106.86994958249134
106.85096670433646
106.8454991145913
106.84401676464019
106.8436426390304
106.84357594791135
106.84364244095866
106.84391178274278
106.84473899297251
106.84718245295295
106.85420686760271
106.87381486945522
106.92675604138255
107.06438415483518
107.40701795619304
108.21880116705503
110.03610349448957
113.84983430558978
121.29075920590651
134.68509975827732
156.8039658723062
190.2485653439876
181.14672312760234
152.8774311473277
134.46167949721408
123.76080045993709
118.21909018707838
115.66187837747842
114.60346810929344
114.2073297105409
114.07201181829004
114.02941304392526
114.01693437021348
114.01350231471126
114.01261092961276
114.01239785379182
114.01237402494048
114.0124518300789
114.0127271066922
114.01356658899596
114.01604894275785
114.02319561673711
114.04317868626703
114.09724796129936
114.23818069448855
114.59019594198632
115.42762218275202
117.31185434573072
121.29077338295797
129.1128408699189
143.3192748275552
167.01607723968303
203.22001140534155
186.26846064924462
160.1698918909259
143.69829760226241
134.46166286373912
129.91040966561417
127.92073285605396
127.14224852789363
126.86680541719433
126.77768472236342
126.75102054229681
126.74356564338461
126.7416020259616
126.7411129087381
126.74100306231945
126.74100560617224
126.74109434638287
126.74138514441064
126.74226943716673
126.74488856180336
126.75245078537431
126.77366828467497
126.83130607948841
126.98222416041672
127.36114161677506
128.26783883368876
130.3209286536518
134.68511107751584
143.31928160979564
159.08539723575922
185.4800052508109
225.85153624299068
196.66692978548798
174.0390788505318
160.16987606627657
152.87742274335275
149.4954746092434
148.10401477668267
147.5909164479285
147.41929453608853
147.36657669922351
147.35152840806714
147.34749473481813
147.34647065244116
147.3462252715301
147.3461792304552
147.34620087373003
147.34630818527242
147.34664899169778
147.34768731294417
147.35076989541997
147.35968998271966
147.38478178832852
147.45311996711584
147.63250118096576
148.08382091254046
149.16511392301223
151.61307719025498
156.8039700109232
167.01609113383523
185.48000281179392
215.90814987376626
261.64429760159607
215.64783805358562
196.66690589540144
186.26845094746378
181.14672626719994
178.9202537744862
178.05933318076376
177.7597221953475
177.66464291739265
177.63677125807044
177.62913583985335
177.62716356945052
177.62667991131323
177.62657006576967
177.6265600716784
177.62660805966695
177.62677373823956
177.62728885476767
177.6288416128735
177.6334154303082
177.6465435828655
177.68312096732274
177.78163368962512
178.0368481998391
178.66906713516144
180.15595256296106
183.44838453979045
190.248558777181
203.22000893525862
225.85151742450023
261.6442803273403
311.384367634926
