# vtk DataFile Version 2.0
Unstructured Grid Example
ASCII
DATASET UNSTRUCTURED_GRID

POINTS 961 float
0.150000006 -0.00839745998 0
0.146666661 -0.00839745998 0
0.143333331 -0.00839745998 0
0.140000001 -0.00839745998 0
0.13666667 -0.00839745998 0
0.13333334 -0.00839745998 0
0.129999995 -0.00839745998 0
0.126666665 -0.00839745998 0
0.123333335 -0.00839745998 0
0.119999997 -0.00839745998 0
0.116666667 -0.00839745998 0
0.113333337 -0.00839745998 0
0.109999999 -0.00839745998 0
0.106666669 -0.00839745998 0
0.103333332 -0.00839745998 0
0.100000001 -0.00839745998 0
0.0966666639 -0.00839745998 0
0.0933333337 -0.00839745998 0
0.0900000036 -0.00839745998 0
0.086666666 -0.00839745998 0
0.0833333358 -0.00839745998 0
0.0799999982 -0.00839745998 0
0.0766666681 -0.00839745998 0
0.0733333305 -0.00839745998 0
0.0700000003 -0.00839745998 0
0.0666666701 -0.00839745998 0
0.0633333325 -0.00839745998 0
0.0599999987 -0.00839745998 0
0.0566666685 -0.00839745998 0
0.0533333346 -0.00839745998 0
0.0500000007 -0.00839745998 0
0.148333326 -0.0112842107 0
0.144999996 -0.0112842107 0
0.141666666 -0.0112842107 0
0.138333336 -0.0112842107 0
0.135000005 -0.0112842107 0
0.13166666 -0.0112842107 0
0.12833333 -0.0112842107 0
0.125 -0.0112842107 0
0.12166667 -0.0112842107 0
0.118333332 -0.0112842107 0
0.115000002 -0.0112842107 0
0.111666664 -0.0112842107 0
0.108333334 -0.0112842107 0
0.104999997 -0.0112842107 0
0.101666667 -0.0112842107 0
0.0983333364 -0.0112842107 0
0.0949999988 -0.0112842107 0
0.0916666687 -0.0112842107 0
0.088333331 -0.0112842107 0
0.0850000009 -0.0112842107 0
0.0816666633 -0.0112842107 0
0.0783333331 -0.0112842107 0
0.075000003 -0.0112842107 0
0.0716666654 -0.0112842107 0
0.0683333352 -0.0112842107 0
0.0649999976 -0.0112842107 0
0.0616666675 -0.0112842107 0
0.0583333336 -0.0112842107 0
0.0549999997 -0.0112842107 0
0.0516666658 -0.0112842107 0
0.0483333319 -0.0112842107 0
0.146666661 -0.0141709624 0
0.143333331 -0.0141709624 0
0.140000001 -0.0141709624 0
0.13666667 -0.0141709624 0
0.13333334 -0.0141709624 0
0.129999995 -0.0141709624 0
0.126666665 -0.0141709624 0
0.123333335 -0.0141709624 0
0.119999997 -0.0141709624 0
0.116666667 -0.0141709624 0
0.113333337 -0.0141709624 0
0.109999999 -0.0141709624 0
0.106666669 -0.0141709624 0
0.103333332 -0.0141709624 0
0.100000001 -0.0141709624 0
0.0966666639 -0.0141709624 0
0.0933333337 -0.0141709624 0
0.0900000036 -0.0141709624 0
0.086666666 -0.0141709624 0
0.0833333358 -0.0141709624 0
0.0799999982 -0.0141709624 0
0.0766666681 -0.0141709624 0
0.0733333305 -0.0141709624 0
0.0700000003 -0.0141709624 0
0.0666666701 -0.0141709624 0
0.0633333325 -0.0141709624 0
0.0599999987 -0.0141709624 0
0.0566666685 -0.0141709624 0
0.0533333346 -0.0141709624 0
0.0500000007 -0.0141709624 0
0.0466666669 -0.0141709624 0
0.144999996 -0.0170577131 0
0.141666666 -0.0170577131 0
0.138333336 -0.0170577131 0
0.135000005 -0.0170577131 0
0.13166666 -0.0170577131 0
0.12833333 -0.0170577131 0
0.125 -0.0170577131 0
0.12166667 -0.0170577131 0
0.118333332 -0.0170577131 0
0.115000002 -0.0170577131 0
0.111666664 -0.0170577131 0
0.108333334 -0.0170577131 0
0.104999997 -0.0170577131 0
0.101666667 -0.0170577131 0
0.0983333364 -0.0170577131 0
0.0949999988 -0.0170577131 0
0.0916666687 -0.0170577131 0
0.088333331 -0.0170577131 0
0.0850000009 -0.0170577131 0
0.0816666633 -0.0170577131 0
0.0783333331 -0.0170577131 0
0.075000003 -0.0170577131 0
0.0716666654 -0.0170577131 0
0.0683333352 -0.0170577131 0
0.0649999976 -0.0170577131 0
0.0616666675 -0.0170577131 0
0.0583333336 -0.0170577131 0
0.0549999997 -0.0170577131 0
0.0516666658 -0.0170577131 0
0.0483333319 -0.0170577131 0
0.0450000018 -0.0170577131 0
0.143333331 -0.0199444648 0
0.140000001 -0.0199444648 0
0.13666667 -0.0199444648 0
0.13333334 -0.0199444648 0
0.129999995 -0.0199444648 0
0.126666665 -0.0199444648 0
0.123333335 -0.0199444648 0
0.119999997 -0.0199444648 0
0.116666667 -0.0199444648 0
0.113333337 -0.0199444648 0
0.109999999 -0.0199444648 0
0.106666669 -0.0199444648 0
0.103333332 -0.0199444648 0
0.100000001 -0.0199444648 0
0.0966666639 -0.0199444648 0
0.0933333337 -0.0199444648 0
0.0900000036 -0.0199444648 0
0.086666666 -0.0199444648 0
0.0833333358 -0.0199444648 0
0.0799999982 -0.0199444648 0
0.0766666681 -0.0199444648 0
0.0733333305 -0.0199444648 0
0.0700000003 -0.0199444648 0
0.0666666701 -0.0199444648 0
0.0633333325 -0.0199444648 0
0.0599999987 -0.0199444648 0
0.0566666685 -0.0199444648 0
0.0533333346 -0.0199444648 0
0.0500000007 -0.0199444648 0
0.0466666669 -0.0199444648 0
0.043333333 -0.0199444648 0
0.141666666 -0.0228312165 0
0.138333336 -0.0228312165 0
0.135000005 -0.0228312165 0
0.13166666 -0.0228312165 0
0.12833333 -0.0228312165 0
0.125 -0.0228312165 0
0.12166667 -0.0228312165 0
0.118333332 -0.0228312165 0
0.115000002 -0.0228312165 0
0.111666664 -0.0228312165 0
0.108333334 -0.0228312165 0
0.104999997 -0.0228312165 0
0.101666667 -0.0228312165 0
0.0983333364 -0.0228312165 0
0.0949999988 -0.0228312165 0
0.0916666687 -0.0228312165 0
0.088333331 -0.0228312165 0
0.0850000009 -0.0228312165 0
0.0816666633 -0.0228312165 0
0.0783333331 -0.0228312165 0
0.075000003 -0.0228312165 0
0.0716666654 -0.0228312165 0
0.0683333352 -0.0228312165 0
0.0649999976 -0.0228312165 0
0.0616666675 -0.0228312165 0
0.0583333336 -0.0228312165 0
0.0549999997 -0.0228312165 0
0.0516666658 -0.0228312165 0
0.0483333319 -0.0228312165 0
0.0450000018 -0.0228312165 0
0.0416666679 -0.0228312165 0
0.140000001 -0.0257179681 0
0.13666667 -0.0257179681 0
0.13333334 -0.0257179681 0
0.129999995 -0.0257179681 0
0.126666665 -0.0257179681 0
0.123333335 -0.0257179681 0
0.119999997 -0.0257179681 0
0.116666667 -0.0257179681 0
0.113333337 -0.0257179681 0
0.109999999 -0.0257179681 0
0.106666669 -0.0257179681 0
0.103333332 -0.0257179681 0
0.100000001 -0.0257179681 0
0.0966666639 -0.0257179681 0
0.0933333337 -0.0257179681 0
0.0900000036 -0.0257179681 0
0.086666666 -0.0257179681 0
0.0833333358 -0.0257179681 0
0.0799999982 -0.0257179681 0
0.0766666681 -0.0257179681 0
0.0733333305 -0.0257179681 0
0.0700000003 -0.0257179681 0
0.0666666701 -0.0257179681 0
0.0633333325 -0.0257179681 0
0.0599999987 -0.0257179681 0
0.0566666685 -0.0257179681 0
0.0533333346 -0.0257179681 0
0.0500000007 -0.0257179681 0
0.0466666669 -0.0257179681 0
0.043333333 -0.0257179681 0
0.0399999991 -0.0257179681 0
0.138333336 -0.0286047198 0
0.135000005 -0.0286047198 0
0.13166666 -0.0286047198 0
0.12833333 -0.0286047198 0
0.125 -0.0286047198 0
0.12166667 -0.0286047198 0
0.118333332 -0.0286047198 0
0.115000002 -0.0286047198 0
0.111666664 -0.0286047198 0
0.108333334 -0.0286047198 0
0.104999997 -0.0286047198 0
0.101666667 -0.0286047198 0
0.0983333364 -0.0286047198 0
0.0949999988 -0.0286047198 0
0.0916666687 -0.0286047198 0
0.088333331 -0.0286047198 0
0.0850000009 -0.0286047198 0
0.0816666633 -0.0286047198 0
0.0783333331 -0.0286047198 0
0.075000003 -0.0286047198 0
0.0716666654 -0.0286047198 0
0.0683333352 -0.0286047198 0
0.0649999976 -0.0286047198 0
0.0616666675 -0.0286047198 0
0.0583333336 -0.0286047198 0
0.0549999997 -0.0286047198 0
0.0516666658 -0.0286047198 0
0.0483333319 -0.0286047198 0
0.0450000018 -0.0286047198 0
0.0416666679 -0.0286047198 0
0.038333334 -0.0286047198 0
0.13666667 -0.0314914696 0
0.13333334 -0.0314914696 0
0.129999995 -0.0314914696 0
0.126666665 -0.0314914696 0
0.123333335 -0.0314914696 0
0.119999997 -0.0314914696 0
0.116666667 -0.0314914696 0
0.113333337 -0.0314914696 0
0.109999999 -0.0314914696 0
0.106666669 -0.0314914696 0
0.103333332 -0.0314914696 0
0.100000001 -0.0314914696 0
0.0966666639 -0.0314914696 0
0.0933333337 -0.0314914696 0
0.0900000036 -0.0314914696 0
0.086666666 -0.0314914696 0
0.0833333358 -0.0314914696 0
0.0799999982 -0.0314914696 0
0.0766666681 -0.0314914696 0
0.0733333305 -0.0314914696 0
0.0700000003 -0.0314914696 0
0.0666666701 -0.0314914696 0
0.0633333325 -0.0314914696 0
0.0599999987 -0.0314914696 0
0.0566666685 -0.0314914696 0
0.0533333346 -0.0314914696 0
0.0500000007 -0.0314914696 0
0.0466666669 -0.0314914696 0
0.043333333 -0.0314914696 0
0.0399999991 -0.0314914696 0
0.0366666652 -0.0314914696 0
0.135000005 -0.0343782231 0
0.13166666 -0.0343782231 0
0.12833333 -0.0343782231 0
0.125 -0.0343782231 0
0.12166667 -0.0343782231 0
0.118333332 -0.0343782231 0
0.115000002 -0.0343782231 0
0.111666664 -0.0343782231 0
0.108333334 -0.0343782231 0
0.104999997 -0.0343782231 0
0.101666667 -0.0343782231 0
0.0983333364 -0.0343782231 0
0.0949999988 -0.0343782231 0
0.0916666687 -0.0343782231 0
0.088333331 -0.0343782231 0
0.0850000009 -0.0343782231 0
0.0816666633 -0.0343782231 0
0.0783333331 -0.0343782231 0
0.075000003 -0.0343782231 0
0.0716666654 -0.0343782231 0
0.0683333352 -0.0343782231 0
0.0649999976 -0.0343782231 0
0.0616666675 -0.0343782231 0
0.0583333336 -0.0343782231 0
0.0549999997 -0.0343782231 0
0.0516666658 -0.0343782231 0
0.0483333319 -0.0343782231 0
0.0450000018 -0.0343782231 0
0.0416666679 -0.0343782231 0
0.038333334 -0.0343782231 0
0.0350000001 -0.0343782231 0
0.13333334 -0.0372649729 0
0.129999995 -0.0372649729 0
0.126666665 -0.0372649729 0
0.123333335 -0.0372649729 0
0.119999997 -0.0372649729 0
0.116666667 -0.0372649729 0
0.113333337 -0.0372649729 0
0.109999999 -0.0372649729 0
0.106666669 -0.0372649729 0
0.103333332 -0.0372649729 0
0.100000001 -0.0372649729 0
0.0966666639 -0.0372649729 0
0.0933333337 -0.0372649729 0
0.0900000036 -0.0372649729 0
0.086666666 -0.0372649729 0
0.0833333358 -0.0372649729 0
0.0799999982 -0.0372649729 0
0.0766666681 -0.0372649729 0
0.0733333305 -0.0372649729 0
0.0700000003 -0.0372649729 0
0.0666666701 -0.0372649729 0
0.0633333325 -0.0372649729 0
0.0599999987 -0.0372649729 0
0.0566666685 -0.0372649729 0
0.0533333346 -0.0372649729 0
0.0500000007 -0.0372649729 0
0.0466666669 -0.0372649729 0
0.043333333 -0.0372649729 0
0.0399999991 -0.0372649729 0
0.0366666652 -0.0372649729 0
0.0333333351 -0.0372649729 0
0.13166666 -0.0401517227 0
0.12833333 -0.0401517227 0
0.125 -0.0401517227 0
0.12166667 -0.0401517227 0
0.118333332 -0.0401517227 0
0.115000002 -0.0401517227 0
0.111666664 -0.0401517227 0
[...]
POINT_DATA 961
SCALARS Temp float 1
LOOKUP_TABLE default
325.2352745430706
275.3570941572685
238.3567531206424
213.89866732268942
199.09898712822735
190.8495288627497
186.58405128629744
184.52276984805454
183.58474511230517
183.17990821860323
183.0131423895887
182.94720947558903
182.92206870611366
182.91278555573405
182.90945573765092
182.90829027024904
182.9078962309833
182.90777883717624
182.90780697601215
182.90808067697947
182.90920080710865
182.91339476302807
182.92822184230255
182.97752580974858
183.1303277836292
183.5675273749773
184.71093138489624
187.41855538266495
193.17972577597436
204.14970217474567
223.21455659084208
275.3571110073247
229.07922223747588
197.09884937128086
176.73791011900775
164.81964834637583
158.36950406978818
155.11980848309574
153.58432447112386
152.89895542507372
152.60802320067893
152.48987401359946
152.44373176104855
152.42632506989764
152.41995801620965
152.41769148725618
152.41690792567167
152.4166497613692
152.4165975190227
152.41671836631878
152.41730459404332
152.41956190793528
152.427716539823
152.4555092258481
152.54418404320714
152.80677033199453
153.52167457849734
155.29449458747175
159.26514486592373
167.24536323583078
181.5976312707291
204.1497203474554
238.35671612784552
197.09883608205539
169.09618281857774
151.56121770343572
141.4137636323216
135.96305828025572
133.22895790678865
131.93970743963885
131.36442634358585
131.12002386906775
131.02061953220976
130.98172327360558
130.9670191861539
130.96162948226456
130.95970837210473
130.95904341470484
130.95883285005726
130.95883124359045
130.95910031948088
130.96022274768836
130.96436767666705
130.97878318664738
131.02591136834207
131.16964311429496
131.57508308770696
132.62368122049554
135.08971918400255
140.32509936631817
150.30124036229378
167.2453535595411
193.17973248470872
213.89862893621608
176.73789557909848
151.5612230914561
135.78056573691592
126.61896369986796
121.67454076414627
119.18070330240921
117.99800347702254
117.46732211123044
117.24069508018752
117.14808330539721
117.111692796653
117.09788483572973
117.0928064457769
117.09099289089467
117.09036770542652
117.09018569780615
117.09024971681104
117.0907562142231
117.09271910278987
117.09967731249773
117.12289659378635
117.19549771159915
117.40667410560924
117.97366375417279
119.36826781372201
122.48922966772643
128.8070955670174
140.32511082295707
159.26515666199163
187.41854740288647
199.0989613097179
164.8196402768339
141.41376246859218
126.61899773890468
117.95962383023326
113.25162345063002
110.86166862454589
109.72199387646461
109.20826424628301
108.98803805918679
108.89775820151006
108.86219158471609
108.84866729775892
108.84368532804444
108.84190389948373
108.84129511487996
108.84114288617857
108.84130690096514
108.84216635672747
108.84531835670339
108.85603050683027
108.89024084070721
108.99241024416897
109.27587874120987
110.00177196961718
111.70711077146835
115.36349231124187
122.48922495876226
135.0897160939994
155.29449183501814
184.7109379362887
190.8495066235978
158.3695237478418
135.96308368818185
121.6745196105948
113.25161602005952
108.64648016881488
106.29864218960913
105.17534581117897
104.66771685372456
104.44968071865753
104.36016454050966
104.32485715047507
104.31141882313695
104.30646568095675
104.30469615034167
104.30410109944607
104.30398846179926
104.30429332797226
104.30562879232923
104.31029203134777
104.32547017194528
104.37184217780997
104.50423771937531
104.85559016788955
105.71794860524165
107.66684138437147
111.70710964008059
119.36826872972985
132.62368754401427
153.5216564992855
183.56751899029067
186.5840522720154
155.11982148304767
133.22898843526468
119.18067792611811
110.86166066906642
106.29864081107381
103.96696992077565
102.849611350844
102.34407999373728
102.12676274083682
102.03748684950442
102.00225807314675
101.98884549747554
101.98390098976412
101.98213780429954
101.98155851073338
101.98149978872253
101.98198641907673
101.9839011489535
101.99028670655673
102.01019754129179
102.06848677823585
102.22812345775137
102.63551644926875
103.60086474284005
105.7179471825538
110.00176826936344
117.97365766551287
131.57507989877473
152.80676758974903
183.13033706648432
184.52277966095795
153.58434254975626
131.93966385674767
117.99798269370413
109.72199104376112
105.17534930493316
102.84961069471
101.73431688607369
101.22947949023636
101.01239090498385
100.92318807742373
100.8879825097139
100.874577496984
100.8696367398248
100.86787985183875
100.8673201937729
100.86732806183484
100.86802722888883
100.8705762758163
100.87871738802554
100.90309419210892
100.97173916787905
101.15309101685058
101.60137608762795
102.63551591449865
104.85558955381657
109.27587909579302
117.40667459007095
131.1696319361405
152.54416623097214
182.9775161542918
183.58474637230066
152.89898175868368
131.36438467524485
117.46730755863493
109.2082644308508
104.66771361949382
102.3440797512203
101.22948086997454
100.72486677571003
100.50784866432979
100.41866754555011
100.38346881743377
100.37006622029
100.36512799883997
100.3633782178808
100.36284212883362
100.36292505155849
100.36384875824658
100.36702228387004
100.37676440937912
100.40489706745396
100.48154360740936
100.67827528063772
101.1530914448331
102.22812328896107
104.50423703823151
108.99240948717427
117.19549450996674
131.02591441855904
152.45551471727507
182.9282398202047
183.17993411793006
152.60796088027698
131.1200050634096
117.24069321172558
108.98804599827187
104.44968054940297
102.12676449870054
101.0123908643248
100.50784855544805
100.29085127884214
100.20167677409343
100.16648008366465
100.15307872098653
100.14814308490823
100.14640134647445
100.14589090031308
100.14605055495461
100.14718829489938
100.15091399326755
100.16196366204773
100.19291873919613
100.27508485486426
100.48154338604374
100.97173900983809
102.0684867860713
104.37184209649841
108.89024107790796
117.12288531108496
130.9787711094428
152.42770106623533
182.91338539933412
183.01319713360527
152.48982800296258
131.02061201464954
117.14808786044965
108.89775449115201
104.36016566178215
102.03748941275505
100.92318810705416
100.41866779952396
100.20167676504947
100.11250422759996
100.07730829794484
100.0639079938519
100.0589751374464
100.0572419723221
100.0567569958156
100.0569877174028
100.05830955251822
100.06247438264587
100.07448232051804
100.10733900715795
100.19291885868898
100.40489714103605
100.9030939496188
102.0101970544735
104.32546951407438
108.85602849981565
117.09967629437119
130.96437159213028
152.41957003833656
182.90918788176177
182.9471559571518
152.44370595998475
130.98172480103594
117.11170351769731
108.86218832633024
104.32485890703322
102.00225706957458
100.88798269361317
100.38346837840447
100.16648009203622
100.07730836286757
100.04211305785185
100.0287139335099
100.02378406753806
100.02205932422007
100.02159742873887
100.02188780955491
100.02335260608038
100.02783213153972
100.04047231289344
100.07448239756427
100.16196373612189
100.37676431507803
100.87871782180156
101.99028762040109
104.31029456892976
108.84531591043
117.09271530163387
130.96022352425803
152.41730557147562
182.9080942850857
182.92204841325596
152.42632593516316
130.9670362898741
117.0978786721403
108.84866889791881
104.31142395568953
101.98884517851461
100.8745783506408
100.3700659687131
100.15307881456751
100.06390795433143
100.02871391438293
100.01531650724972
100.01038999195261
100.00867309837123
100.00823044587702
100.00856637787834
100.01013169676907
100.0148150370004
100.02783209196438
100.06247436593902
100.15091409863314
100.3670219470652
100.87057612096399
101.98390076402166
104.30562781886266
108.84216545068419
117.09075508836183
130.95910541778827
152.41669684314212
182.9078097711287
182.91276922206393
152.41996039672676
130.9616500159088
117.09279940995955
108.84368705953467
104.30646303349361
101.9839009992268
100.86963613961133
100.36512785202851
100.14814324057392
100.05897508057112
100.0237840606112
100.01038998849994
100.00546790122692
100.00375849280272
100.00333102409613
100.00369890808798
100.00532854446749
100.01013169177013
100.02335261597219
100.05830953987207
100.14718835759027
100.36384872818547
100.86802768328067
101.98198751396023
104.30429208765891
108.84130474320379
117.09024646226578
130.95883152585364
152.416601065431
182.9077786393364
182.90945688223906
152.41771003323888
130.95969802112336
117.09099275345638
108.84191165851209
104.3046951980952
101.98213956867077
100.8678796277603
100.36337819316567
100.14640131486007
100.05724196562521
100.02205933719996
100.0086730949296
100.00375849505926
100.00205749220008
100.0016422686978
100.00203137526832
100.00369890576567
100.008566370082
100.02188779426011
100.05698772198865
100.14605051007888
100.36292474860655
100.86732790236069
101.98149926775083
104.30398806281643
108.84114242486503
117.09018538675764
130.95882086692464
152.41664644943822
182.90788912455338
182.90828979255494
152.4169274091682
130.959031884958
117.09036875296412
108.84128955902344
104.30410071634175
101.9815570522064
100.86732020768946
100.36284228377289
100.14589085025771
100.05675700036304
100.02159739722052
100.00823044590126
100.00333102026528
100.0016422686616
100.00123871332539
100.00164226946666
100.00333102148143
100.00823045486015
100.02159741127328
100.05675697852317
100.14589097653308
100.36284211870958
100.86732071617627
101.98155788589459
104.30409997005096
108.84129402025569
117.09036467504419
130.95904778148144
152.41689963446152
182.90829346452037
182.90791404674675
152.41662643004952
130.95883718929917
117.0901977772816
108.84114076398862
104.3039915858713
101.98149928541714
100.8673284436918
100.36292474580107
100.14605062487347
100.05698778440849
100.02188779110472
100.00856638771074
100.00369890645517
100.00203137601217
100.0016422701249
100.00205749358103
100.00375849034243
100.00867309775245
100.0220593136834
100.05724191861304
100.14640130854198
100.36337793917846
100.86787958783098
101.9821377539252
104.30469604535159
108.84190428959795
117.09098168404005
130.9597061732299
152.41767724497214
182.9094477139301
182.9078090077292
152.41658016187392
130.95883921834886
117.09023869754967
108.84130607424882
104.30429021439055
101.98198633359347
100.86802800800695
100.36384841684522
100.14718840785883
100.05830950353815
100.02335259284919
100.01013168851088
100.00532854227029
100.00369890955285
100.00333102482219
100.00375849328243
100.00546790447733
100.01038999342131
100.02378405062304
100.05897512804084
100.14814316051682
100.36512805688878
100.86963647412915
101.98390052076257
104.30646497859914
108.84368351828174
117.09280601703072
130.96162271189746
152.41994987194974
182.9127862805438
182.9077759834916
152.41670946390695
130.95911470126592
117.09074509293826
108.84216772717787
104.30562559198465
101.98390084186595
100.87057561669755
100.3670220129817
100.15091416671817
100.06247432314224
100.02783212360481
100.01481503243227
100.01013169430817
100.00856637747498
100.00823044548622
100.00867309715913
100.01038999504978
100.01531650209485
100.02871390814518
100.06390798194799
100.15307878449906
100.37006613119384
100.87457788493013
101.98884637834823
104.3114213345274
108.84866464111347
117.09788631948736
130.96701873394363
152.42632447607252
182.92207762032936
182.90807455471756
152.41731632466858
130.96020913367133
117.09271667846622
108.84531184332864
104.310292054115
101.99028827738445
100.87871713468485
100.37676444315517
100.16196365376236
100.07448234283126
100.04047230469786
100.02783212495581
100.02335261044657
100.02188781321338
100.02159742921444
100.02205932511698
100.02378406911195
100.02871392849299
100.04211307503374
100.07730832601142
100.16648016639533
100.38346847922558
100.88798234572214
102.00225765740232
104.3248561853586
108.8621906793388
117.1116842753283
130.9817163839345
152.44372202091355
182.94720925214915
182.90919623708345
152.4195783417679
130.96435309694283
117.09967919479037
108.85602407656698
104.32546968770849
102.010195994636
100.9030941297437
100.40489731490493
100.19291876098222
100.10733908958262
100.07448231611107
100.06247437754288
100.05830955011088
100.05698771334977
100.05675699658093
100.05724197859779
100.05897513313357
100.06390799365312
100.07730830803595
100.11250420892259
100.20167681684056
100.4186675364933
100.92318853667665
102.03748781416212
104.36016304649958
108.89775869265091
117.14807895406076
131.0206189448949
152.48987362990246
183.01313905601884
182.91338875605084
152.42767428139558
130.9787722829288
117.12287798506917
108.89023651036068
104.37184350887259
102.06848541744172
100.97173932902918
100.48154321725583
100.27508473490184
100.19291871856488
100.16196364061145
100.15091400537219
100.14718831821142
100.14605055828947
100.14589089969098
100.14640134632374
100.14814307944796
100.15307872785162
100.16648006898751
100.20167680651642
100.29085129899086
100.50784836717382
101.01239107617394
102.12676315317277
104.44968233824103
108.98803688782391
117.24069407605809
131.12003085398896
152.6080332051812
183.1799251826771
182.9282655253984
152.45550422364275
131.02593087355086
117.1954943847062
108.99241430293452
104.50423736951497
102.22812507450676
101.15309268241202
100.6782756565
100.48154429571352
100.40489753952542
100.37676483888377
100.36702270426706
100.36384916442634
100.36292548579056
100.36284258676805
100.36337863274936
100.36512844088529
100.37006665484577
100.38346922030252
100.41866796678453
100.50784889324594
100.72486719707855
101.22948014644186
102.34407830832416
104.6677154707661
109.20825933015131
117.4673129272065
131.3644181131546
152.89892971921202
183.5847281378822
182.97750892341398
152.54418855183528
131.1696328656866
117.40667467297472
109.27588642531725
104.85558977297173
102.63551841654113
101.60137710626007
101.15309189752834
100.97174014839715
100.90309511797146
100.87871841306114
100.87057738004785
100.86802823622706
100.86732904537497
100.86732117423853
100.86788082470174
100.86963773302003
100.87457848304597
100.88798353859528
100.9231890235469
101.01239175407645
101.22948044403536
101.73431697457039
102.84961223973596
105.17534495239127
109.72199193010229
117.99799794936793
131.93970527233193
153.58431841654536
184.522766464489
183.13032070318147
152.80678554831698
131.575075371502
117.97366342591867
110.0017674268296
105.71795001333167
103.60086703992815
102.63551720152363
102.22812499548397
102.06848801290485
102.01019861490292
101.9902877284293
101.98390209802524
101.98198749705136
101.9815009657986
101.98155951772691
101.98213893646029
101.98390208351894
101.98884653706946
102.00225917629542
102.0374878825435
102.1267638874505
102.34408069745321
102.84961219476666
103.96697287607971
106.29864113939746
110.86166820262576
119.18070355874104
133.22895460891536
155.11980445620753
186.5840544138629
183.56752616002495
153.52164175888896
132.62367713877236
119.36827412296442
111.70710571208703
107.6668429368308
105.71794823611178
104.85558983014687
104.50423764345742
104.37184197221814
104.32547031707394
104.31029251295843
104.30562893309606
104.3042933710117
104.30398847537184
104.30410112918491
104.30469622936947
104.30646577659755
104.31141905899983
104.32485715777278
104.36016465276458
104.44968097773554
104.66771678310812
105.1753468045654
106.29864092339693
108.64648265036577
113.25162787859644
121.67454764592067
135.96306698774055
158.36950820691604
190.84950995005102
184.71093751952208
155.29446816970744
135.08971261551218
122.48921403738167
115.36348947462429
111.70710817275928
110.00176700503107
109.27587550137278
108.99240680721874
108.89023695208252
108.85602642806143
108.84531398350698
108.84216241851917
108.841303261696
108.8411387563615
108.84129137982441
108.84190002607035
108.84368131027934
108.84866342582207
108.86218770887027
108.89775434178183
108.98803389714439
109.20826082487686
109.72199142663281
110.86166496062381
113.25162437026644
117.95963507678997
126.61896998410471
141.4137418887969
164.81962825216849
199.0989690370495
187.4185563001716
159.26516634306995
140.32513900359558
128.807107079008
122.4892475566809
119.36828175106436
117.97367722427364
117.40668767556902
117.19551081113325
117.1229105916868
117.09969215967702
117.09273310545063
117.09076992467982
117.09026330534421
117.09019945817809
117.09038151993616
117.0910067579707
117.09282065122255
117.09789843788708
117.11170671333676
117.14809732466392
117.24070866841532
117.46733596805281
117.99801598619939
119.18071720730937
121.6745582125688
126.6189861165374
135.78055169543205
151.56119849992066
176.73787079542697
213.89863442389984
193.17974094825968
167.2453835179065
150.30125436045566
140.32512121053898
135.089739651285
132.6236970926566
131.57510128820837
131.16966128070746
131.02592870847158
130.97880008536202
130.9643837180507
130.96023973025518
130.95911792317312
130.95884795928677
130.95885038926644
130.95906061805695
130.95972528944878
130.96164657564069
130.96703638419197
130.98174032821728
131.02063608945915
131.1200416918453
131.36444395267696
131.93972336394776
133.22897560806865
135.96307848896757
141.41375398036422
151.56120449897873
169.09616169690253
197.09881497513138
238.35672336288502
204.14972199252117
181.59765428675126
167.24536665989737
159.2651572255555
155.2945024750638
153.5216820931238
152.80677803427605
152.54419104267078
152.45551810519873
152.42772653824366
152.41957038959225
152.41731263311354
152.41672616126547
152.41660592578523
152.41665806318278
152.41691633166644
152.41770040192807
152.41996587331877
152.426333581387
152.4437403063057
152.4898821581858
152.60803127479056
152.8989631552569
153.58433355127536
155.11981920121488
158.36951664071913
164.81963311859369
176.7378833637646
197.0988116877859
229.07918479687308
275.3570346444031
223.21457263004646
204.1496972228604
193.1797304448395
187.4185592975025
184.71092942095467
183.56752859176365
183.13032852127918
182.9775272302626
182.92822266375882
182.91339284218586
182.90920072515
182.90808110708352
182.90780711502325
182.90777963505477
182.90789656802795
182.90829061456262
182.90945524887755
182.91278625565383
182.92206876504355
182.9472089896499
183.01314334907963
183.17990905497547
183.58474537098675
184.52277051349625
186.58405077121637
190.8495063822252
199.09896345569788
213.8986305984269
238.35670342715468
275.3570171144714
325.23488005152797
