# vtk DataFile Version 2.0
Unstructured Grid Example
ASCII
DATASET UNSTRUCTURED_GRID

POINTS 961 float
0.150000006 -0.00839745998 0
0.146666661 -0.00839745998 0
0.143333331 -0.00839745998 0
0.140000001 -0.00839745998 0
0.13666667 -0.00839745998 0
0.13333334 -0.00839745998 0
0.129999995 -0.00839745998 0
0.126666665 -0.00839745998 0
0.123333335 -0.00839745998 0
0.119999997 -0.00839745998 0
0.116666667 -0.00839745998 0
0.113333337 -0.00839745998 0
0.109999999 -0.00839745998 0
0.106666669 -0.00839745998 0
0.103333332 -0.00839745998 0
0.100000001 -0.00839745998 0
0.0966666639 -0.00839745998 0
0.0933333337 -0.00839745998 0
0.0900000036 -0.00839745998 0
0.086666666 -0.00839745998 0
0.0833333358 -0.00839745998 0
0.0799999982 -0.00839745998 0
0.0766666681 -0.00839745998 0
0.0733333305 -0.00839745998 0
0.0700000003 -0.00839745998 0
0.0666666701 -0.00839745998 0
0.0633333325 -0.00839745998 0
0.0599999987 -0.00839745998 0
0.0566666685 -0.00839745998 0
0.0533333346 -0.00839745998 0
0.0500000007 -0.00839745998 0
0.148333326 -0.0112842107 0
0.144999996 -0.0112842107 0
0.141666666 -0.0112842107 0
0.138333336 -0.0112842107 0
0.135000005 -0.0112842107 0
0.13166666 -0.0112842107 0
0.12833333 -0.0112842107 0
0.125 -0.0112842107 0
0.12166667 -0.0112842107 0
0.118333332 -0.0112842107 0
0.115000002 -0.0112842107 0
0.111666664 -0.0112842107 0
0.108333334 -0.0112842107 0
0.104999997 -0.0112842107 0
0.101666667 -0.0112842107 0
0.0983333364 -0.0112842107 0
0.0949999988 -0.0112842107 0
0.0916666687 -0.0112842107 0
0.088333331 -0.0112842107 0
0.0850000009 -0.0112842107 0
0.0816666633 -0.0112842107 0
0.0783333331 -0.0112842107 0
0.075000003 -0.0112842107 0
0.0716666654 -0.0112842107 0
0.0683333352 -0.0112842107 0
0.0649999976 -0.0112842107 0
0.0616666675 -0.0112842107 0
0.0583333336 -0.0112842107 0
0.0549999997 -0.0112842107 0
0.0516666658 -0.0112842107 0
0.0483333319 -0.0112842107 0
0.146666661 -0.0141709624 0
0.143333331 -0.0141709624 0
0.140000001 -0.0141709624 0
0.13666667 -0.0141709624 0
0.13333334 -0.0141709624 0
0.129999995 -0.0141709624 0
0.126666665 -0.0141709624 0
0.123333335 -0.0141709624 0
0.119999997 -0.0141709624 0
0.116666667 -0.0141709624 0
0.113333337 -0.0141709624 0
0.109999999 -0.0141709624 0
0.106666669 -0.0141709624 0
0.103333332 -0.0141709624 0
0.100000001 -0.0141709624 0
0.0966666639 -0.0141709624 0
0.0933333337 -0.0141709624 0
0.0900000036 -0.0141709624 0
0.086666666 -0.0141709624 0
0.0833333358 -0.0141709624 0
0.0799999982 -0.0141709624 0
0.0766666681 -0.0141709624 0
0.0733333305 -0.0141709624 0
0.0700000003 -0.0141709624 0
0.0666666701 -0.0141709624 0
0.0633333325 -0.0141709624 0
0.0599999987 -0.0141709624 0
0.0566666685 -0.0141709624 0
0.0533333346 -0.0141709624 0
0.0500000007 -0.0141709624 0
0.0466666669 -0.0141709624 0
0.144999996 -0.0170577131 0
0.141666666 -0.0170577131 0
0.138333336 -0.0170577131 0
0.135000005 -0.0170577131 0
0.13166666 -0.0170577131 0
0.12833333 -0.0170577131 0
0.125 -0.0170577131 0
0.12166667 -0.0170577131 0
0.118333332 -0.0170577131 0
0.115000002 -0.0170577131 0
0.111666664 -0.0170577131 0
0.108333334 -0.0170577131 0
0.104999997 -0.0170577131 0
0.101666667 -0.0170577131 0
0.0983333364 -0.0170577131 0
0.0949999988 -0.0170577131 0
0.0916666687 -0.0170577131 0
0.088333331 -0.0170577131 0
0.0850000009 -0.0170577131 0
0.0816666633 -0.0170577131 0
0.0783333331 -0.0170577131 0
0.075000003 -0.0170577131 0
0.0716666654 -0.0170577131 0
0.0683333352 -0.0170577131 0
0.0649999976 -0.0170577131 0
0.0616666675 -0.0170577131 0
0.0583333336 -0.0170577131 0
0.0549999997 -0.0170577131 0
0.0516666658 -0.0170577131 0
0.0483333319 -0.0170577131 0
0.0450000018 -0.0170577131 0
0.143333331 -0.0199444648 0
0.140000001 -0.0199444648 0
0.13666667 -0.0199444648 0
0.13333334 -0.0199444648 0
0.129999995 -0.0199444648 0
0.126666665 -0.0199444648 0
0.123333335 -0.0199444648 0
0.119999997 -0.0199444648 0
0.116666667 -0.0199444648 0
0.113333337 -0.0199444648 0
0.109999999 -0.0199444648 0
0.106666669 -0.0199444648 0
0.103333332 -0.0199444648 0
0.100000001 -0.0199444648 0
0.0966666639 -0.0199444648 0
0.0933333337 -0.0199444648 0
0.0900000036 -0.0199444648 0
0.086666666 -0.0199444648 0
0.0833333358 -0.0199444648 0
0.0799999982 -0.0199444648 0
0.0766666681 -0.0199444648 0
0.0733333305 -0.0199444648 0
0.0700000003 -0.0199444648 0
0.0666666701 -0.0199444648 0
0.0633333325 -0.0199444648 0
0.0599999987 -0.0199444648 0
0.0566666685 -0.0199444648 0
0.0533333346 -0.0199444648 0
0.0500000007 -0.0199444648 0
0.0466666669 -0.0199444648 0
0.043333333 -0.0199444648 0
0.141666666 -0.0228312165 0
0.138333336 -0.0228312165 0
0.135000005 -0.0228312165 0
0.13166666 -0.0228312165 0
0.12833333 -0.0228312165 0
0.125 -0.0228312165 0
0.12166667 -0.0228312165 0
0.118333332 -0.0228312165 0
0.115000002 -0.0228312165 0
0.111666664 -0.0228312165 0
0.108333334 -0.0228312165 0
0.104999997 -0.0228312165 0
0.101666667 -0.0228312165 0
0.0983333364 -0.0228312165 0
0.0949999988 -0.0228312165 0
0.0916666687 -0.0228312165 0
0.088333331 -0.0228312165 0
0.0850000009 -0.0228312165 0
0.0816666633 -0.0228312165 0
0.0783333331 -0.0228312165 0
0.075000003 -0.0228312165 0
0.0716666654 -0.0228312165 0
0.0683333352 -0.0228312165 0
0.0649999976 -0.0228312165 0
0.0616666675 -0.0228312165 0
0.0583333336 -0.0228312165 0
0.0549999997 -0.0228312165 0
0.0516666658 -0.0228312165 0
0.0483333319 -0.0228312165 0
0.0450000018 -0.0228312165 0
0.0416666679 -0.0228312165 0
0.140000001 -0.0257179681 0
0.13666667 -0.0257179681 0
0.13333334 -0.0257179681 0
0.129999995 -0.0257179681 0
0.126666665 -0.0257179681 0
0.123333335 -0.0257179681 0
0.119999997 -0.0257179681 0
0.116666667 -0.0257179681 0
0.113333337 -0.0257179681 0
0.109999999 -0.0257179681 0
0.106666669 -0.0257179681 0
0.103333332 -0.0257179681 0
0.100000001 -0.0257179681 0
0.0966666639 -0.0257179681 0
0.0933333337 -0.0257179681 0
0.0900000036 -0.0257179681 0
0.086666666 -0.0257179681 0
0.0833333358 -0.0257179681 0
0.0799999982 -0.0257179681 0
0.0766666681 -0.0257179681 0
0.0733333305 -0.0257179681 0
0.0700000003 -0.0257179681 0
0.0666666701 -0.0257179681 0
0.0633333325 -0.0257179681 0
0.0599999987 -0.0257179681 0
0.0566666685 -0.0257179681 0
0.0533333346 -0.0257179681 0
0.0500000007 -0.0257179681 0
0.0466666669 -0.0257179681 0
0.043333333 -0.0257179681 0
0.0399999991 -0.0257179681 0
0.138333336 -0.0286047198 0
0.135000005 -0.0286047198 0
0.13166666 -0.0286047198 0
0.12833333 -0.0286047198 0
0.125 -0.0286047198 0
0.12166667 -0.0286047198 0
0.118333332 -0.0286047198 0
0.115000002 -0.0286047198 0
0.111666664 -0.0286047198 0
0.108333334 -0.0286047198 0
0.104999997 -0.0286047198 0
0.101666667 -0.0286047198 0
0.0983333364 -0.0286047198 0
0.0949999988 -0.0286047198 0
0.0916666687 -0.0286047198 0
0.088333331 -0.0286047198 0
0.0850000009 -0.0286047198 0
0.0816666633 -0.0286047198 0
0.0783333331 -0.0286047198 0
0.075000003 -0.0286047198 0
0.0716666654 -0.0286047198 0
0.0683333352 -0.0286047198 0
0.0649999976 -0.0286047198 0
0.0616666675 -0.0286047198 0
0.0583333336 -0.0286047198 0
0.0549999997 -0.0286047198 0
0.0516666658 -0.0286047198 0
0.0483333319 -0.0286047198 0
0.0450000018 -0.0286047198 0
0.0416666679 -0.0286047198 0
0.038333334 -0.0286047198 0
0.13666667 -0.0314914696 0
0.13333334 -0.0314914696 0
0.129999995 -0.0314914696 0
0.126666665 -0.0314914696 0
0.123333335 -0.0314914696 0
0.119999997 -0.0314914696 0
0.116666667 -0.0314914696 0
0.113333337 -0.0314914696 0
0.109999999 -0.0314914696 0
0.106666669 -0.0314914696 0
0.103333332 -0.0314914696 0
0.100000001 -0.0314914696 0
0.0966666639 -0.0314914696 0
0.0933333337 -0.0314914696 0
0.0900000036 -0.0314914696 0
0.086666666 -0.0314914696 0
0.0833333358 -0.0314914696 0
0.0799999982 -0.0314914696 0
0.0766666681 -0.0314914696 0
0.0733333305 -0.0314914696 0
0.0700000003 -0.0314914696 0
0.0666666701 -0.0314914696 0
0.0633333325 -0.0314914696 0
0.0599999987 -0.0314914696 0
0.0566666685 -0.0314914696 0
0.0533333346 -0.0314914696 0
0.0500000007 -0.0314914696 0
0.0466666669 -0.0314914696 0
0.043333333 -0.0314914696 0
0.0399999991 -0.0314914696 0
0.0366666652 -0.0314914696 0
0.135000005 -0.0343782231 0
0.13166666 -0.0343782231 0
0.12833333 -0.0343782231 0
0.125 -0.0343782231 0
0.12166667 -0.0343782231 0
0.118333332 -0.0343782231 0
0.115000002 -0.0343782231 0
0.111666664 -0.0343782231 0
0.108333334 -0.0343782231 0
0.104999997 -0.0343782231 0
0.101666667 -0.0343782231 0
0.0983333364 -0.0343782231 0
0.0949999988 -0.0343782231 0
0.0916666687 -0.0343782231 0
0.088333331 -0.0343782231 0
0.0850000009 -0.0343782231 0
0.0816666633 -0.0343782231 0
0.0783333331 -0.0343782231 0
0.075000003 -0.0343782231 0
0.0716666654 -0.0343782231 0
0.0683333352 -0.0343782231 0
0.0649999976 -0.0343782231 0
0.0616666675 -0.0343782231 0
0.0583333336 -0.0343782231 0
0.0549999997 -0.0343782231 0
0.0516666658 -0.0343782231 0
0.0483333319 -0.0343782231 0
0.0450000018 -0.0343782231 0
0.0416666679 -0.0343782231 0
0.038333334 -0.0343782231 0
0.0350000001 -0.0343782231 0
0.13333334 -0.0372649729 0
0.129999995 -0.0372649729 0
0.126666665 -0.0372649729 0
0.123333335 -0.0372649729 0
0.119999997 -0.0372649729 0
0.116666667 -0.0372649729 0
0.113333337 -0.0372649729 0
0.109999999 -0.0372649729 0
0.106666669 -0.0372649729 0
0.103333332 -0.0372649729 0
0.100000001 -0.0372649729 0
0.0966666639 -0.0372649729 0
0.0933333337 -0.0372649729 0
0.0900000036 -0.0372649729 0
0.086666666 -0.0372649729 0
0.0833333358 -0.0372649729 0
0.0799999982 -0.0372649729 0
0.0766666681 -0.0372649729 0
0.0733333305 -0.0372649729 0
0.0700000003 -0.0372649729 0
0.0666666701 -0.0372649729 0
0.0633333325 -0.0372649729 0
0.0599999987 -0.0372649729 0
0.0566666685 -0.0372649729 0
0.0533333346 -0.0372649729 0
0.0500000007 -0.0372649729 0
0.0466666669 -0.0372649729 0
0.043333333 -0.0372649729 0
0.0399999991 -0.0372649729 0
0.0366666652 -0.0372649729 0
0.0333333351 -0.0372649729 0
0.13166666 -0.0401517227 0
0.12833333 -0.0401517227 0
0.125 -0.0401517227 0
0.12166667 -0.0401517227 0
0.118333332 -0.0401517227 0
0.115000002 -0.0401517227 0
0.111666664 -0.0401517227 0
[...]
POINT_DATA 961
SCALARS Temp float 1
LOOKUP_TABLE default
337.9510265889935
288.0609830210675
250.1379438045445
224.16016376854594
207.73509430306618
198.10594198690436
192.84526067448365
190.15161319351628
188.85114637059826
188.2556362476307
187.99554568739563
187.8866552711848
187.8427569966123
187.8256493921091
187.8191837432832
187.81680646784866
187.81596390248882
187.8157065237544
187.81577299315848
187.81637479102557
187.8186677401306
187.82660418055858
187.85246340973447
187.9315574817121
188.15696370843673
188.75091272380493
190.18701012503757
193.35169167487464
199.67614244022005
211.11801272789887
230.23531977504646
288.06099957651065
241.42272997405226
208.1946707966631
186.20410578559895
172.72335651597024
165.0387454977656
160.94489805874946
158.89504894718473
157.92466480868313
157.48787891191574
157.2999555388193
157.22230464880897
157.19136053021074
157.1794242181698
157.17495288883268
157.1733281150581
157.17276988937195
157.1726568685217
157.17293011895367
157.17416869402234
157.17859375652057
157.19335949126346
157.23973163165033
157.3759618740935
157.7476631910093
158.68262132923292
160.83553784574818
165.34715903746155
173.91605386335755
188.65302149867708
211.11803123507002
250.13790499332273
208.19465606830983
178.84606331191011
159.74944274228267
148.18713021774136
141.65436249857171
138.19480810061137
136.4687708512422
135.6531153299782
135.28613172900657
135.1281607692069
135.06281348474556
135.036733762671
135.02665743886425
135.02287855393206
135.02150719441863
135.02105790149483
135.0210594532623
135.02164542981845
135.0239276451145
135.03173874544635
135.0568394137661
135.13256521544335
135.34570950486992
135.90157708469653
137.2356891378602
140.16433883832912
146.0147868497639
156.61032600446316
173.91604421208814
199.67614977674884
224.16012211566434
186.2040886570957
159.74944749995257
142.55629733662636
132.13330444953712
126.22599992208684
123.0843079539935
121.50923539026877
120.76116585439455
120.42292941797953
120.27665241410813
120.21588353261919
120.19153678920912
120.18209698510661
120.17854910320199
120.17726784544543
120.17688443421109
120.17703150353928
120.17809788467217
120.18195103865564
120.1946164303132
120.23372666762371
120.34686115158092
120.65162845573778
121.41145281185175
123.15443214700738
126.81449683930717
133.8213557754409
146.0147990553829
165.34717110563884
193.35168356447198
207.73506447755878
172.72334569639145
148.1871272358209
132.13334290752616
122.33195157781307
116.73865992472199
113.7450717778958
112.23576328402561
111.5154095815736
111.18833504399255
111.04638127799409
110.98723124536076
110.96347340517733
110.95424388138787
110.95077151186054
110.9495304660038
110.94921485191979
110.94957212267865
110.9513262431733
110.95732459035234
110.9762564219815
111.03235466023935
111.18788727245948
111.58921648462164
112.54800241709876
114.65880351035926
118.92437142939383
126.81449176101093
140.164335488378
160.83553520795056
190.18701660205153
198.10591578903276
165.03876713218708
141.65439080205576
126.22597708823368
116.73865175209593
111.29237071498363
108.36349359732789
106.88117963910014
106.17157835091845
105.84861802203156
105.70818721778717
105.64958421918271
105.62601810863305
105.61685611765186
105.61341270847075
105.61220384243353
105.61197566450923
105.61261906199688
105.61527102053417
105.62391600861184
105.65011255490482
105.72462249622829
105.92289970567069
106.41440792161062
107.54477870850818
109.94812728000925
114.65880213898005
123.15443312157637
137.23569565952113
158.68260271524912
188.75090454800537
192.84526270769965
160.94491234434207
138.19484087156536
123.08428082007735
113.74506295308672
108.3634919765992
105.46134349147854
103.98955936432202
103.28393515187997
102.96242606857855
102.82250963844825
102.76408448332221
102.74057943891911
102.73143960242132
102.7280121937845
102.72683936296019
102.72672523275358
102.7277268815761
102.73144223500528
102.74303379634773
102.77679082418133
102.869136085882
103.10580371199782
103.67218975358219
104.93411500442446
107.54477698609892
112.54799814608724
121.4114459855898
135.901574003535
157.74766049189452
188.15697292758543
190.15162395919396
158.8950685284687
136.4687254582899
121.5092130515994
112.23576049691687
106.88118395028607
103.98955852407322
102.52170272539229
101.81749008357606
101.49647509499303
101.35672619766686
101.29835720206941
101.27487143090656
101.26574122987203
101.26232874959462
101.26119945049632
101.26122236903659
101.26263263744657
101.26748827009182
101.28203573510969
101.32285833129147
101.43067101909365
101.69815007827223
102.32007229820657
103.6721890676521
106.41440709976919
111.5892169647362
120.65162903595409
135.34569770744406
157.3759437977109
187.93154783050255
188.8511489471006
157.92469257785987
135.65307273521782
120.76115049076255
111.51540994428716
106.17157437729918
103.28393475863113
101.81749194292198
101.11376448952706
100.7929121052033
100.65321634850696
100.59486489722258
100.57138574904451
100.56226198128562
100.55886589661891
100.55778718479985
100.55796105849015
100.55979485593386
100.56575711515418
100.5829783023774
100.62973761651847
100.74959046197446
101.03925376016728
101.69815064596908
103.10580354900965
105.9228989519497
111.18788639701603
120.34685775878671
135.1325684412268
157.2397373280088
187.85248156511693
188.25566406714265
157.48781624035396
135.28611224612413
120.42292738543692
111.18834386295084
105.84861773952132
102.96242824827902
101.4964749776801
100.79291193254227
100.47211113785261
100.33243233927702
100.27408649046347
100.25061064617682
100.24149309887143
100.23811507870273
100.23709026692333
100.23741580200407
100.23964819573501
100.24658217712485
100.26598675500341
100.31724216597122
100.44553728331736
100.74959014889274
101.43067082553338
102.86913608168878
105.7246223828432
111.03235489678399
120.23371435965018
135.05682682261806
157.1933437286931
187.82659494865135
187.99560106649116
157.29990873473506
135.1281524803884
120.27665709583984
111.04637668115646
105.70818842722576
102.82251280704445
101.35672624015886
100.65321671032802
100.33243232583214
100.19275889261165
100.13441523529734
100.11094206807306
100.10183104746649
100.09847185636214
100.09749974326323
100.09796415415663
100.10053734905274
100.10824455585744
100.12926211349743
100.18359587846889
100.31724235444213
100.62973771944858
101.32285800201555
102.77679019654151
105.65011177961824
110.976254227562
120.19461528474196
135.0317428910255
157.17860197178058
187.81865467482191
187.8866003279229
157.22227739481818
135.06281436220343
120.21589464201051
110.98722728846653
105.64958626812853
102.76408315035057
101.29835745303733
100.59486426957443
100.2740865024497
100.13441534247285
100.0760733814035
100.05260311111594
100.04349898981377
100.04015805861452
100.03923325035495
100.03981368947251
100.0426518565729
100.05091768818198
100.07301633749165
100.12926223772779
100.26598686833606
100.58297817086546
101.2820363369882
102.74303498867248
105.62391905834268
110.95732178250063
120.1819468895818
135.02392847009983
157.17416980793791
187.81638848942995
187.84273515830375
157.19136024216115
135.03675110300577
120.19152959111179
110.96347514773146
105.62602422482239
102.74057907060008
101.27487258326286
100.57138539990135
100.25061079091577
100.11094200366918
100.05260307904047
100.02913690840127
100.02004041747928
100.01671640924431
100.0158309496462
100.01650018968495
100.0195262517292
100.02815951994462
100.05091761996059
100.1082445285359
100.24658233843967
100.56575663512895
101.26748805610416
102.73144173455294
105.61526987419978
110.95132521199996
120.17809667520014
135.02165081750607
157.1729083370032
187.8157759979964
187.82563192372632
157.17942600515318
135.02667858388423
120.1820892431456
110.95424596533198
105.61685291058326
102.73143965176189
101.26574041792557
100.56226177420442
100.24149333602507
100.10183095729788
100.04349897925108
100.02004041132764
100.01095380621382
100.00764591943785
100.00679168515533
100.00752385630724
100.01067206085806
100.01952624288786
100.04265187368998
100.10053732973152
100.2396482928412
100.55979481303987
101.26263325412559
102.72772827847943
105.61261756195348
110.94956966424934
120.17702797553285
135.02105991786985
157.17266048318336
187.8157062318942
187.81918461955766
157.17497171265896
135.0228677192163
120.17854916209681
110.95078043834378
105.61341164513478
102.72801443919272
101.26232847156953
100.55886586634338
100.23811502976642
100.09847184709734
100.04015808064028
100.01671640317873
100.00764592377114
100.00435599264668
100.00352721814826
100.00430196799753
100.00752385199075
100.01650017569617
100.03981366357937
100.09796416093762
100.23741573251802
100.55796062274938
101.2612221508238
102.72672458624783
105.61197519084655
110.9492143434157
120.1768841254741
135.02104521199823
157.17276648181456
187.8159565542937
187.81680633774766
157.17334826038868
135.02149551910134
120.17726924461451
110.949524055865
105.6122034496333
102.72683748989688
101.26119947815833
100.557787406064
100.23709019482277
100.09749975171486
100.03923319654895
100.01583094992216
100.00679167792097
100.003527218104
100.00272278796614
100.00352721968379
100.00679168032745
100.01583096570192
100.03923322050204
100.09749971640144
100.23709038333176
100.55778717165009
101.26120015833222
102.72683856500664
105.61220249649357
110.94952916202814
120.17726457896156
135.02151160770305
157.17331954996556
187.8168094585168
187.81598260663188
157.17274657177947
135.02106266891886
120.17689764453833
110.949212499865
105.6119794161981
102.72672462022899
101.26122289909212
100.55796061900882
100.2374159112523
100.09796426178282
100.03981365890508
100.01650020763017
100.00752385343641
100.00430196947266
100.00352722095911
100.00435599532487
100.00764591489103
100.01671640825423
100.0401580408968
100.09847177036102
100.23811502126622
100.5588654956124
101.26232840760424
102.7280121173846
105.61341257077251
110.95077190865469
120.17853677398487
135.02287622880252
157.1749381756358
187.81917566485433
187.81573702876875
157.1726393924005
135.0210678808999
120.17701930334432
110.9495712174975
105.61261527813255
102.72772679332002
101.26263369273047
100.55979437504845
100.23964836945325
100.10053727091432
100.04265183501718
100.01952623668576
100.01067205670073
100.00752385916616
100.00679168646259
100.00764592038378
100.01095381224235
100.02004042018707
100.04349896231196
100.10183103247186
100.24149321541437
100.56226206229016
101.2657408677541
102.73143899529222
105.6168552473195
110.95424185342851
120.18209635718948
135.0266503511631
157.17941592173005
187.82565020834903
187.8157414735284
157.17292084971626
135.02166026659313
120.17808578188291
110.95132778721296
105.61526721620024
102.73144186669717
101.26748737050882
100.56575673476328
100.2465824400693
100.1082444598104
100.05091767364623
100.02815951163234
100.01952624711558
100.01650018897325
100.01583094895558
100.0167164068079
100.02004042310404
100.02913689925667
100.05260306799907
100.11094204854457
100.25061074180144
100.5713856265722
101.27487195187234
102.7405805677251
105.62602109881769
110.96347034153953
120.19153845988467
135.0367333339054
157.19136007802604
187.84276620489135
187.8163683027969
157.17418053619824
135.02391322990582
120.18194855484259
110.9573171466143
105.62391607614668
102.74303582309125
101.28203542020884
100.58297835174992
100.2659867410286
100.12926215085166
100.0730163226488
100.05091767649338
100.04265186480758
100.03981369515101
100.03923325112943
100.04015806045794
100.04349899269657
100.05260310237992
100.07607341000143
100.13441528318336
100.27408661231847
100.59486441427372
101.29835697314644
102.76408394804483
105.6495830946294
110.98723018207069
120.21587431782332
135.0628064138637
157.22229500066908
187.8866552991795
187.81866318497092
157.1786105059311
135.03172379859998
120.19461852464163
110.97624923035966
105.65011203993895
102.77678882656602
101.3228582498611
100.6297379623377
100.31724220563136
100.18359601038797
100.12926210413525
100.10824454662907
100.1005373453104
100.09796414750684
100.09749974439605
100.09847186611803
100.10183104035201
100.11094206691389
100.13441525230596
100.19275886138398
100.33243240313934
100.65321634148223
101.35672683150854
102.82251085399703
105.70818542581576
111.04638194328749
120.27664778542446
135.1281602768215
157.29995532041704
187.99554239953943
187.82659880743466
157.19331678641655
135.05682839341105
120.23370638691922
111.03234972225653
105.72462405496323
102.86913435003311
101.43067124798989
100.74958990096836
100.44553710360213
100.31724213158469
100.2659867205853
100.24658219871924
100.23964822814072
100.2374158068228
100.23709026645483
100.23811507826949
100.24149309105329
100.25061065790035
100.27408646512733
100.33243238933379
100.47211117294094
100.79291167011547
101.49647531369123
102.962426626667
105.84862000639023
111.18833371451545
120.42292840296375
135.2861390548872
157.48788922217489
188.25565323420588
187.85250773032385
157.23972704758816
135.1325857496465
120.34685771536434
111.18789203038997
105.9228993802119
103.10580588486272
101.69815233414984
101.03925429690027
100.7495914684521
100.62973828582959
100.58297891633636
100.56575771920528
100.55979543797007
100.55796168069278
100.5577878376809
100.55886649203677
100.56226261227066
100.57138636993963
100.59486546880653
100.65321694705955
100.79291242224498
101.11376510373273
101.81749104561804
103.28393303424141
106.17157682853029
111.51540410069478
120.76115610816693
135.65310699713692
157.92463854280254
188.8511291757736
187.93154053179882
157.37596663850414
135.3456987067719
120.65162930311212
111.58922541900708
106.41440750483393
103.67219230393194
102.32007365209844
101.6981512608811
101.43067234298535
101.32285958050181
101.28203712889697
101.26748974673022
101.26263399532868
101.26122369679655
101.26120077150765
101.26233006517113
101.2657425686622
101.27487275476061
101.29835858384386
101.35672747121455
101.49647621684906
101.81749138259251
102.52170287184957
103.98956053779308
106.88117879280298
112.23576138294912
121.50922931545207
136.46876864547212
158.8950426673287
190.15160995415212
188.15695656405939
157.7476786603675
135.9015693745852
121.41145244873962
112.54799722944392
107.54478046213562
104.93411789661688
103.67219069097214
103.10580574197162
102.8691376225527
102.77679218140055
102.74303509929554
102.7314434438333
102.72772825163608
102.72672671672042
102.72684064991836
102.72801362749163
102.7314409891213
102.74058075959121
102.76408587864964
102.8225109336508
102.96242754504651
103.28393601561221
103.9895603833503
105.46134723250974
108.36349221617512
113.74507128295332
123.08430826397627
138.19480470662774
160.94489423956705
192.8452648138673
188.75091187572303
158.6825877463872
137.23568488621785
123.15443891319006
114.65879771427967
109.9481291308655
107.54477817807685
106.4144074517331
105.92289959792443
105.72462224238137
105.65011274427336
105.62391653676059
105.61527118148547
105.61261911322316
105.61197567532085
105.6122038843882
105.61341279631587
105.61685622292055
105.62601837448052
105.64958423347791
105.70818733731787
105.84861835571631
106.17157825436693
106.88118092509676
108.3634918810265
111.29237343314834
116.73866489785466
126.22600760349142
141.65437216990827
165.03875053280922
198.1059191483974
190.18701592775818
160.83551108675303
140.16433172314947
126.81447968388142
118.92436823765132
114.65880057172974
112.5479966376165
111.58921292547909
111.18788322740915
111.03235017548678
110.976251754096
110.95731959904533
110.95132172900308
110.94956791623817
110.9492101391114
110.94952616451616
110.95076706169772
110.95423928268565
110.96346895433038
110.98722679486951
111.04637688523519
111.18833028959484
111.51540563045636
112.23576072168856
113.74506752029123
116.73866096968044
122.33196408033085
132.13331165570415
148.18710426911426
172.72333201820194
207.73507089792022
193.35169304871528
165.34718163877372
146.0148287129093
133.82136827638305
126.81451653401864
123.15444727343177
121.41146747808789
120.65164332310026
120.34687552722208
120.23374202335175
120.19463257206336
120.18196635720463
120.17811290840245
120.1770463911349
120.1768995139133
120.17728296383758
120.17856427584839
120.18211249853707
120.19155169968109
120.21589874665882
120.27666775089956
120.42294426793103
120.76118108533377
121.50924869362683
123.08432291723824
126.22601902341064
132.1333296003933
142.5562812819486
159.74942132640987
186.20406337047459
224.1601276679865
199.6761586751784
173.9160748739895
156.61034046399223
146.01480996165014
140.16436055802862
137.23570572021
135.90159651116744
135.3457284073606
135.1325833512658
135.05685714568622
135.03175564094516
135.02394546968523
135.02166384115782
135.021077017939
135.02107625402255
135.02152522146764
135.02289631016887
135.0266753545822
135.03675178488194
135.06283138267344
135.1281781472257
135.28615030021058
135.6531338914925
136.46878730024355
138.1948265620505
141.65438427567443
148.1871170657128
159.74942655367096
178.84603967727685
208.19463292798767
250.13791046070597
211.11803312220027
188.65304469676698
173.9160571738478
165.34717191116204
160.83554561260198
158.6826287774238
157.74767097736216
157.37596900537307
157.23974063121344
157.1933694710825
157.17860233298433
157.1741768563343
157.17293804131708
157.1726653756567
157.17277829036928
157.173336614797
157.1749618685585
157.17943220674528
157.19136912736238
157.22231329673622
157.29996377964497
157.48788717139263
157.92467228377996
158.89505786425886
160.94490905022087
165.03875929019983
172.72333761554293
186.20407472642026
208.1946289274215
241.42268838798995
288.06091886013
230.23533595117448
211.11800764873334
199.67614749174342
193.35169589037173
190.18700801285573
188.7509143001837
188.1569642842045
187.93155872585865
187.8524641238891
187.82660235060038
187.81866763551182
187.8163751502058
187.8157730814739
187.81570722522923
187.81596417485488
187.81680674970858
187.8191832487845
187.8256500018653
187.84275702444606
187.88665476502453
187.99554651050377
188.25563711303667
188.85114629787216
190.151613739477
192.84526086347444
198.10591523512565
207.73506627368255
224.16012268891305
250.13788963505718
288.0609011585175
337.95062613207017
